1502
Step 0 (Initial) E=       187.0783
 C      0.00000000      0.00000000      0.00000000
 C      1.54000000      0.00000000      0.00000000
 C      2.16637443      1.40686000      0.00000000
 C      3.66258126      1.42635798      0.36412216
 C      4.37444288      2.74721905      0.01745361
 C      5.74756620      2.91509470      0.69417372
 C      6.61420783      4.03231159      0.08396170
 C      7.80827375      4.44933657      0.96253826
 C      8.86966735      5.28384156      0.22183248
 C      9.86262187      6.00358967      1.15328510
 C     11.12184635      6.52987085      0.43985548
 C     11.92973321      7.54856924      1.26518717
 C     13.35239120      7.79950336      0.73163652
 C     14.02631261      9.05674727      1.31195340
 C     15.54704658      9.11737171      1.07680900
 C     16.16348261     10.50756727      1.31963181
 C     17.69835589     10.49897091      1.44489208
 C     18.34467642     11.89133844      1.32167505
 C     19.80707386     11.94772305      1.80106479
 C     20.56498756     13.21107141      1.35260327
 C     21.88202353     13.45432906      2.11276245
 C     22.81209933     14.48190799      1.44146478
 C     23.93842489     14.99853024      2.35584554
 C     25.06861801     15.72825267      1.60633323
 C     25.99501164     16.55294604      2.51917259
 C     27.31536789     16.97914964      1.85088383
 C     28.07048235     18.08826088      2.60671081
 C     29.53502382     18.26278069      2.16369712
 C     30.17995830     19.57877757      2.63678453
 C     31.71539320     19.60112660      2.52042224
 C     32.33211895     21.00728535      2.63860394
 C     33.85172575     21.00580319      2.88838985
 C     34.52755776     22.36832012      2.64673158
 C     35.94761331     22.47586089      3.23280087
 C     36.75866971     23.66919963      2.69453500
 C     38.01430947     23.99796456      3.52331870
 C     39.01109206     24.92863720      2.80786575
 C     40.06859774     25.54891971      3.73981603
 C     41.26642507     26.17319671      3.00016211
 C     42.12961209     27.10006633      3.87618771
 C     43.50571763     27.43226051      3.26990347
 C     44.21521237     28.62270814      3.94150726
 C     45.71305728     28.73246331      3.60089833
 C     46.33860095     30.09354870      3.95830802
 C     47.87858458     30.09264660      3.96535159
 C     48.50582173     31.49910458      3.95831454
 C     50.00036084     31.52028944      4.32912992
 C     50.71461523     32.83825962      3.97643282
 C     52.08473541     33.01009158      4.65822785
 C     52.95484660     34.12247638      4.04413780
 C     54.14514286     34.54497762      4.92520961
 C     55.21042553     35.37362468      4.18351096
 C     56.19955798     36.09933160      5.11440648
 C     57.46235432     36.61983871      4.40305723
 C     58.26709074     37.64384965      5.22488500
 C     59.69232674     37.89018739      4.69609386
 C     60.36436615     39.15109120      5.27062377
 C     61.88619591     39.20916765      5.04201642
 C     62.50237489     40.60067715      5.27786546
 C     64.03665416     40.59206388      5.41020194
 C     64.68439129     41.98315048      5.28014543
 C     66.14461744     42.04205247      5.76581008
 C     66.90535303     43.30176768      5.31193901
 C     68.21905177     43.54960010      6.07638308
 C     69.15282018     44.57188191      5.40213056
 C     70.27527475     45.09426972      6.31799448
 C     71.40933169     45.81803453      5.56854179
 C     72.33205387     46.64859202      6.47978162
 C     73.65571321     47.06930608      5.81455563
 C     74.40805127     48.18326913      6.56600340
 C     75.87470937     48.35380741      6.12847544
 C     76.51828845     49.67272470      6.59523355
 C     78.05425256     49.69335443      6.48574076
 C     78.67130067     51.09994895      6.59684204
 C     80.18974899     51.09933545      6.85357989
 C     80.86752005     52.45972094      6.60543139
 C     82.28494891     52.57055375      7.19721811
 C     83.09919374     53.75959765      6.65428167
 C     84.35123617     54.09345437      7.48646520
 C     85.35185255     55.01848233      6.76904612
 C     86.40547174     55.64469183      7.70143459
 C     87.60705197     56.26304363      6.96289143
 C     88.46679958     57.19555264      7.83631057
 C     89.84586619     57.52266355      7.23400356
 C     90.55302013     58.71739467      7.90044999
 C     92.05247336     58.82387145      7.56593134
 C     92.67721828     60.18707299      7.91660976
 C     94.21715279     60.18531842      7.93070294
 C     94.84528457     61.59132433      7.91663586
 C     96.33812643     61.61424413      8.29412472
 C     97.05479934     62.92927966      7.93543056
 C     98.42189567     63.10510532      8.62225875
 C     99.29549111     64.21262881      8.00434069
 C    100.48200973     64.64062594      8.88785188
 C    101.55118235     65.46340596      8.14521942
 C    102.53649900     66.19506985      9.07549842
 C    103.80285408     66.70981560      8.36628645
 C    104.60445939     67.73911613      9.18455862
 C    106.03224879     67.98088959      8.66057098
 C    106.70243491     69.24541358      9.22927975
 C    108.22532900     69.30098749      9.00723215
 C    108.84128362     70.69376194      9.23609724
 C    110.37493654     70.68518194      9.37550710
 C    111.02412071     72.07493864      9.23862685
 C    112.48214848     72.13640340      9.73053852
 C    113.24572841     73.39244581      9.27129658
 C    114.55607319     73.64488502     10.03997793
 C    115.49354441     74.66184687      9.36282484
 C    116.61212481     75.19001280     10.28011359
 C    117.75004159     75.90781829      9.53078010
 C    118.66910328     76.74423065     10.44036240
 C    119.99604830     77.15947494      9.77825281
 C    120.74563299     78.27826049     10.52527470
 C    122.21438017     78.44485471     10.09326997
 C    122.85663459     79.76664857     10.55367225
 C    124.39309544     79.78560710     10.45106323
 C    125.01049853     81.19258733     10.55508276
 C    126.52775716     81.19289208     10.81876088
 C    127.20749560     82.55109938     10.56414625
 C    128.62227370     82.66526594     11.16161502
 C    129.43972561     83.84998033     10.61405299
 C    130.68815837     84.18895477     11.44958394
 C    131.69261400     85.10832211     10.73025605
 C    132.74234839     85.74046381     11.66302321
 C    133.94767275     86.35289618     10.92564964
 C    134.80399636     87.29102811     11.79640698
 C    136.18600271     87.61308214     11.19812638
 C    136.89084209     88.81206171     11.85937478
 C    138.39187376     88.91530211     11.53097662
 C    139.01585202     90.28057282     11.87490547
 C    140.55570467     90.27801547     11.89605377
 C    141.18476290     91.68351929     11.87496419
 C    142.67587812     91.70822198     12.25910632
 C    143.39499510     93.02027929     11.89444704
 C    144.75904708     93.20013575     12.58626627
 C    145.63614122     94.30276906     11.96457049
 C    146.81887450     94.73628135     12.85046500
 C    147.89193766     95.55318560     12.10695785
 C    148.87344505     96.29080422     13.03656099
 C    150.14334552     96.79980170     12.32954305
 C    150.94183927     97.83436850     13.14420818
 C    152.37215726     98.07161013     12.62506768
 C    153.04051896     99.33971429     13.18792155
 C    154.56444585     99.39283129     12.97245597
 C    155.18020879    100.78682162     13.19432743
 C    156.71320307    100.77832505     13.34080731
 C    157.36386462    102.16670301     13.19711954
 C    158.81966708    102.23077574     13.69524992
 C    159.58611359    103.48310596     13.23067616
 C    160.89308794    103.74018364     14.00354687
 C    161.83427189    104.75180308     13.32354769
 C    162.94897522    105.28575929     14.24220283
 C    164.09074756    105.99760418     13.49304814
 C    165.00616001    106.83986174     14.40091502
 C    166.33637304    107.24965641     13.74197525
 C    167.08322759    108.37323478     14.48452486
 C    168.55403616    108.53592271     14.05808050
 C    169.19499675    109.86054908     14.51210085
 C    170.73192186    109.87788465     14.41638940
 C    171.34971252    111.28520051     14.51332634
 C    172.86575033    111.28647306     14.78393259
 C    173.54748432    112.64245551     14.52287639
 C    174.95958779    112.75999730     15.12599140
 C    175.78026521    113.94034786     14.57384908
 C    177.02507620    114.28446558     15.41267481
 C    178.03337625    115.19815674     14.69149560
 C    179.07922783    115.83623543     15.62458190
 C    180.28828727    116.44275457     14.88843666
 C    181.14120257    117.38649253     15.75647706
 C    182.52612709    117.70351645     15.16227178
 C    183.22867832    118.90670911     15.81828184
 C    184.73125845    119.00675539     15.49603395
 C    185.35450216    120.37404813     15.83319539
 C    186.89424023    120.37073776     15.86140385
 C    187.52425668    121.77568951     15.83329978
 C    189.01361597    121.80222290     16.22407450
 C    189.73520242    123.11125862     15.85348245
 C    191.09618976    123.29518272     16.55025026
 C    191.97679681    124.39289732     15.92482730
 C    193.15573730    124.83194362     16.81304894
 C    194.23269133    125.64296382     16.06872626
 C    195.21039627    126.38653449     16.99759423
 C    196.48382851    126.88979723     16.29282692
 C    197.27923046    127.92960658     17.10383385
 C    198.71205207    128.16234914     16.58958377
 C    199.37861833    129.43399323     17.14654941
 C    200.90354642    129.48469912     16.93768763
 C    201.51915040    130.87985617     17.15255626
 C    203.05145378    130.87149320     17.30610232
 C    203.70362297    132.25844364     17.15562372
 C    205.15717333    132.32516938     17.65994407
 C    205.92650846    133.57374827     17.19007791
 C    207.23009613    133.83549578     17.96708977
 C    208.17500248    134.84175073     17.28429919
 C    209.28582611    135.38150896     18.20426219
 C    210.43144948    136.08739241     17.45534588
 C    211.34322416    136.93548507     18.36143956
 C    212.67668732    137.33985067     17.70572280
 C    213.42083517    138.46819185     18.44375407
 C    214.89367728    138.62701153     18.02290680
 C    215.53337497    139.95442617     18.47051961
 C    217.07073181    139.97018710     18.38171902
 C    217.68894261    141.37778849     18.47157303
 C    219.20372855    141.38007831     18.74909477
 C    219.88748613    142.73378946     18.48162200
 C    221.29689128    142.85474772     19.09034709
 C    222.12081240    144.03070041     18.53367011
 C    223.36198978    144.37998658     19.37573773
 C    224.37413918    145.28798643     18.65276478
 C    225.41611020    145.93200649     19.58611068
 C    226.62889541    146.53261900     18.85125243
 C    227.47841832    147.48194573     19.71652095
 C    228.86623925    147.79396663     19.12643958
 C    229.56652888    149.00133673     19.77717136
 C    231.07062738    149.09823138     19.46110310
 C    231.69316873    150.46749889     19.79147978
 C    233.23275949    150.46348527     19.82675292
 C    233.86376587    151.86783503     19.79164288
 C    235.35134007    151.89624680     20.18902904
 C    236.07542120    153.20221780     19.81253699
 C    237.43332384    153.39024606     20.51421055
 C    238.31745774    154.48301378     19.88511123
 C    239.49259827    154.92761256     20.77560361
 C    240.57344322    155.73274083     20.03052466
 C    241.54735279    156.48226045     20.95859819
 C    242.82430293    156.97980237     20.25613795
 C    243.61663308    158.02483020     21.06343576
 C    245.05193315    158.25310676     20.55411906
 C    245.71673309    159.52825029     21.10516354
 C    247.24263070    159.57659104     20.90292688
 C    247.85810843    160.97286557     21.11078400
 C    249.38968873    160.96468635     21.27139188
 C    250.04339568    162.35016062     21.11413964
 C    251.49466732    162.41958419     21.62462077
 C    252.26691290    163.66437290     21.14950200
 C    253.56709789    163.93082127     21.93060651
 C    254.51573604    164.93169001     21.24507941
 C    255.62267763    165.47726160     22.16629163
 C    256.77214721    166.17718319     21.41767327
 C    257.68029587    167.03110046     22.32193612
 C    259.01699105    167.43005790     21.66949533
 C    259.75845581    168.56313155     22.40296252
 C    261.23330347    168.71812129     21.98774866
 C    261.87176927    170.04827976     22.42892875
 C    263.40952528    170.06251450     22.34705185
 C    264.02818876    171.47035129     22.42982309
 C    265.54169187    171.47370777     22.71424719
 C    266.22750095    172.82510131     22.44038332
 C    267.63418428    172.94951704     23.05468189
 C    268.46136708    174.12103814     22.49351620
 C    269.69889927    174.47551761     23.33877260
 C    270.71490265    175.37781139     22.61406365
 C    271.75299562    176.02777677     23.54760956
 C    272.96949704    176.62248968     22.81409688
 C    273.81564370    177.57738750     23.67653875
 C    275.20633908    177.88443286     23.09062961
 C    275.90439385    179.09594446     23.73604356
 C    277.40998051    179.18973017     23.42618384
 C    278.03185173    180.56092504     23.74975888
 C    279.57126246    180.55625803     23.79210073
 C    280.20329040    181.95995589     23.74999373
 C    281.68905048    181.99029359     24.15396971
 C    282.41565134    183.29315694     23.77161085
 C    283.77044943    183.48532562     24.47814700
 C    284.65812390    184.57311862     23.84542240
 C    285.82945755    185.02328795     24.73812898
 C    286.91419320    185.82251684     23.99235304
 C    287.88431475    186.57798190     24.91957294
 C    289.16476867    187.06981732     24.21947603
 C    289.95404722    188.12003918     25.02301409
 C    291.39180043    188.34388315     24.51867335
 C    292.05486328    189.62248537     25.06376418
 C    293.58169866    189.66850711     24.86817347
 C    294.19708289    191.06584980     25.06901089
 C    295.72790795    191.05790447     25.23667574
 C    296.38318267    192.44185401     25.07266753
 C    297.83214914    192.51402006     25.58927980
 C    298.60732680    193.75498000     25.10894861
 C    299.90409335    194.02615991     25.89409697
 C    300.85647244    195.02162114     25.20588842
 C    301.95952991    195.57301702     26.12829116
 C    303.11284061    196.26697673     25.38003028
 C    304.01737527    197.12670769     26.28240478
 C    305.35728410    197.52027829     25.63329270
 C    306.09608959    198.65805372     26.36215039
 C    307.57291467    198.80925211     25.95260587
 C    308.21017969    200.14210976     26.38732852
 C    309.74830229    200.15486687     26.31238763
 C    310.36745095    201.56288891     26.38807675
 C    311.87964036    201.56736140     26.67938960
 C    312.56752868    202.91639118     26.39916056
 C    313.97146690    203.04430512     27.01899562
 C    314.80192910    204.21136123     26.45338749
 C    316.03580478    204.57105844     27.30177934
 C    317.05566650    205.46763183     26.57539223
 C    318.08988425    206.12354606     27.50907857
 C    319.31009204    206.71236682     26.77696992
 C    320.15287885    207.67281766     27.63653059
 C    321.54642651    207.97491530     27.05484171
 C    322.24227329    209.19053217     27.69489865
 C    323.74931781    209.28125185     27.39127592
 C    324.37055118    210.65432653     27.70803294
 C    325.90974918    210.64905602     27.75744703
 C    326.54283023    212.05205214     27.70835257
 C    328.02674729    212.08436319     28.11889629
 C    328.75589273    213.38407617     27.73070422
 C    330.10756664    213.58042122     28.44205944
 C    330.99879513    214.66321204     27.80576090
 C    332.16631529    215.11896961     28.70062498
 C    333.25494113    215.91229208     27.95421140
 C    334.22128226    216.67369862     28.88051852
 C    335.50522560    217.15984227     28.18284106
 C    336.29147298    218.21523335     28.98256897
 C    337.73165382    218.43467843     28.48324644
 C    338.39300895    219.71669836     29.02235154
 C    339.92075029    219.76044740     28.83342717
 C    340.53607374    221.15880885     29.02723718
 C    342.06611147    221.15114753     29.20195366
 C    342.72298389    222.53352390     29.03120761
 C    344.16961889    222.60847688     29.55392096
 C    344.94775004    223.84556972     29.06841789
 C    346.24108264    224.12151153     29.85756103
 C    347.19721154    225.11154431     29.16672629
 C    348.29638309    225.66877498     30.09026075
 C    349.45352956    226.35677323     29.34241688
 C    350.35446246    227.22230657     30.24284563
 C    351.69756639    227.61051201     29.59711475
 C    352.43373659    228.75295821     30.32131785
 C    353.91251083    228.90040411     29.91747821
 C    354.54860625    230.23591611     30.34571916
 C    356.08706282    230.24724424     30.27772611
 C    356.70672914    231.65540139     30.34633428
 C    358.21757408    231.66103912     30.64452176
 C    358.90756924    233.00765917     30.35795393
 C    360.30873923    233.13911182     30.98328812
 C    361.14249836    234.30166985     30.41328412
 C    362.37270646    234.66660890     31.26475786
 C    363.39643062    235.55744795     30.53675056
 C    364.42677621    236.21931415     31.47051773
 C    365.65068027    236.80225061     30.73987149
 C    366.49012387    237.76823603     31.59649662
 C    367.88650143    238.06541410     31.01907570
 C    368.58016726    239.28509971     31.65373682
 C    370.08863923    239.37279651     31.35637912
 C    370.70926708    240.74770332     31.66630220
 C    372.24821965    240.74187925     31.72279156
 C    372.88238531    242.14412383     31.66671965
 C    374.36443057    242.17845550     32.08380856
 C    375.09614528    243.47497564     31.68981730
 C    376.44467561    243.67553271     32.40594774
 C    377.33947131    244.75329422     31.76612684
 C    378.50317160    245.21465731     32.66309158
 C    379.59568686    246.00206673     31.91609973
 C    380.55825546    246.76941041     32.84143500
 C    381.84567362    247.24987743     32.14623292
 C    382.62891046    248.31041254     32.94210058
 C    384.07149326    248.52549276     32.44783814
 C    384.73117014    249.81088916     32.98092585
 C    386.25978557    249.85241197     32.79868773
 C    386.87508099    251.25174270     32.98546313
 C    388.40429935    251.24441551     33.16722539
 C    389.06279927    252.62517035     32.98976012
 C    390.50707665    252.70295453     33.51854406
 C    391.28818252    253.93614221     33.02791002
 C    392.57806589    254.21687595     33.82099857
 C    393.53795320    255.20145972     33.12759309
 C    394.63323730    255.76453529     34.05220038
 C    395.79421391    256.44657292     33.30483301
 C    396.69155758    257.31789689     34.20325878
 C    398.03783780    257.70075925     33.56096136
 C    398.77139691    258.84784487     34.28046510
 C    400.25209189    258.99157739     33.88236546
 C    400.88704899    260.32969873     34.30410090
 C    402.42580690    260.33964664     34.24306703
 C    403.04602330    261.74788874     34.30459593
 C    404.55549310    261.75474086     34.60964345
 C    405.24762255    263.09890538     34.31676363
 C    406.64600140    263.23393700     34.94755919
 C    407.48307472    264.39196418     34.37320623
 C    408.70960443    264.76216878     35.22770807
 C    409.73719486    265.64725998     34.49813867
 C    410.76367163    266.31508083     35.43192706
 C    411.99126161    266.89214127     34.70280150
 C    412.82737886    267.86364241     35.55643694
 C    414.22656375    268.15592944     34.98333142
 C    414.91807584    269.37964696     35.61255829
 C    416.42794474    269.46436423     35.32149320
 C    417.04799943    270.84105538     35.62456693
 C    418.58667391    270.83472771     35.68813408
 C    419.22195558    272.23617101     35.62509521
 C    420.70210041    272.27257042     36.04870630
 C    421.43640888    273.56585546     35.64895027
 C    422.78177644    273.77065992     36.36981174
 C    423.68015232    274.84336535     35.72652032
 C    424.84002665    275.31035085     36.62552871
 C    425.93643026    276.09184103     35.87801803
 C    426.89523449    276.86511706     36.80232244
 C    428.18611260    277.33992298     36.10965150
 C    428.96635975    278.40557659     36.90160907
 C    430.41131867    278.61632627     36.41244825
 C    431.06934690    279.90505767     36.93948735
 C    432.59880448    279.94440086     36.76395490
 C    433.21410462    281.34465134     36.94368899
 C    434.74247163    281.33770836     37.13249069
 C    435.40262872    282.71679346     36.94832528
 C    436.84452253    282.79745288     37.48314889
 C    437.62862411    284.02669764     36.98742515
 C    438.91504323    284.31225299     37.78440947
 C    439.87869729    285.29136758     37.08848889
 C    440.97009270    285.86029774     38.01411006
 C    442.13489354    286.53637600     37.26727863
 C    443.02866074    287.41347846     38.16364432
 C    444.37809823    287.79102019     37.52483237
 C    445.10907061    288.94271355     38.23959232
 C    446.59165779    289.08277209     37.84726740
 C    447.22550792    290.42345755     38.26247399
 C    448.76453451    290.43207410     38.20841015
 C    449.38533340    291.84035097     38.26286194
 C    450.89339746    291.84846658     38.57475443
 C    451.58768851    293.19012992     38.27558989
 C    452.98325352    293.32878052     38.91180867
 C    453.82365806    294.48224439     38.33315394
 C    455.04649885    294.85773789     39.19062990
 C    456.07795907    295.73706811     38.45955659
 C    457.10057066    296.41084587     39.39330659
 C    458.33183594    296.98203900     38.66575987
 C    459.16464395    297.95903662     39.51635169
 C    460.56661340    298.24646147     38.94760868
 C    461.25599908    299.47417381     39.57136327
 C    462.76723431    299.55595511     39.28661793
 C    463.38674824    300.93438264     39.58282737
 C    464.92511199    300.92760140     39.65347432
 C    465.56154099    302.32819372     39.58347949
 C    467.03975688    302.36670787     40.01358927
 C    467.77668343    303.65671578     39.60810332
 C    469.11886927    303.86580268     40.33365129
 C    470.02083801    304.93342563     39.68694144
 C    471.17688055    305.40605004     40.58793634
 C    472.27717120    306.18161519     39.83996629
 C    473.23221946    306.96081836     40.76318091
 C    474.52654243    307.42997912     40.07309669
 C    475.30382096    308.50072531     40.86109460
 C    476.75112997    308.70717909     40.37707657
 C    477.40753928    309.99920379     40.89803626
 C    478.93780701    310.03641415     40.72922844
 C    479.55314461    311.43753477     40.90191502
 C    481.08062835    311.43102605     41.09774930
 C    481.74247218    312.80839330     40.90690333
 C    483.18195663    312.89197181     41.44773525
 C    483.96907471    314.11723616     40.94696344
 C    485.25201478    314.40764245     41.74779362
 C    486.21944367    315.38126810     41.04941375
 C    487.30694941    315.95606210     41.97598976
 C    488.47556831    316.62618268     41.22975369
 C    489.36577207    317.50905108     42.12400235
 C    490.71834758    317.88129499     41.48872763
 C    491.44675778    319.03756410     42.19869971
 C    492.93120848    319.17398829     41.81218381
 C    493.56398306    320.51719249     42.22083867
 C    495.10324567    320.52452664     42.17375522
 C    495.72465940    321.93278811     42.22113256
 C    497.23128724    321.94221619     42.53985445
 C    497.92776704    323.28133290     42.23443291
 C    499.32049568    323.42364221     42.87603637
 C    500.16424825    324.57251066     42.29312738
 C    501.38338983    324.95331603     43.15352326
 C    502.41872313    325.82687255     42.42100434
 C    503.43747343    326.50660908     43.35465635
 C    504.67240313    327.07194399     42.62874652
 C    505.50191924    328.05441847     43.47624102
 C    506.90665028    328.33701035     42.91190730
 C    507.59393705    329.56868012     43.53015197
 C    509.10650789    329.64756923     43.25175307
 C    509.72551352    331.02768509     43.54108376
 C    511.26353390    331.02050031     43.61881205
 C    511.90114148    332.42019203     43.54187273
 C    513.37740007    332.46086775     43.97845728
 C    514.11696883    333.74755673     43.56727664
 C    515.45595420    333.96096083     44.29746625
 C    516.36152825    335.02347525     43.64739029
 C    517.51373346    335.50175464     44.55031442
 C    518.61790953    336.27138940     43.80194450
 C    519.56921052    337.05651411     44.72401046
 C    520.86696300    337.52004605     44.03656836
 C    521.64129417    338.59585854     44.82055734
 C    523.09092710    338.79805137     44.34172290
 C    523.74574732    340.09332742     44.85657280
 C    525.27679314    340.12845187     44.69450810
 C    525.89220094    341.53039297     44.86014146
 C    527.41876955    341.52436853     45.06300098
 C    528.08232958    342.89996996     44.86549449
 C    529.51937903    342.98651120     45.41230295
 C    530.30953419    344.20775792     44.90652506
 C    531.58898068    344.50304415     45.71115090
 C    532.56019220    345.47116146     45.01036772
 C    533.64380758    346.05182817     45.93783949
 C    534.81623810    346.71599318     45.19225816
 C    535.70289169    347.60461455     46.08433297
 C    537.05858574    347.97158385     45.45264701
 C    537.78445849    349.13239637     46.15778744
 H     -0.36333333      0.00000000      1.02766186
 H     -0.36333333     -0.88998127     -0.51383093
 H     -0.36333333      0.88998127     -0.51383093
 H      2.62914887     -0.04306674      0.00000000
 H      1.13634667     -1.01250382      0.00000000
 H      2.57136836      2.41876695     -0.01114649
 H      1.10874309      1.43589423     -0.26205527
 H      4.71759567      1.39995635      0.63678964
 H      3.19606302      0.47634365      0.62476273
 H      4.84472895      3.69269124     -0.25275619
 H      3.40801050      2.66683467     -0.48018765
 H      6.70926045      3.00171303      1.19988256
 H      5.16588641      2.11618329      1.15405325
 H      7.20136892      4.82359605     -0.38209705
 H      5.78137950      3.76638286     -0.56702130
 H      8.63514035      4.72391967      1.61751593
 H      7.08095152      3.86151718      1.52251213
 H      9.60314599      5.86239400     -0.33976004
 H      8.18753872      4.79139150     -0.47119960
 H     10.53869451      6.50547506      1.84548221
 H      8.98676622      5.64686298      1.69524724
 H     12.00336728      6.87744608     -0.09885809
 H     10.57896515      5.81283376     -0.17596740
 H     12.46761139      8.27403524      1.87550361
 H     10.93059072      7.39915868      1.67444354
 H     14.35563463      7.94161157      0.32988053
 H     12.91092669      6.90235841      0.29765492
 H     14.46477483      9.95971797      1.73680020
 H     12.95248484      9.05160313      1.49894924
 H     16.62263410      9.11844594      0.90014452
 H     15.14995604      8.11871696      0.89485350
 H     16.56014032     11.50834100      1.49055463
 H     15.07771917     10.55631060      1.23691647
 H     18.78320451     10.45016109      1.53881262
 H     17.28019060      9.49663403      1.53740466
 H     18.76506034     12.89168611      1.21832187
 H     17.31198798     11.89338205      0.97289088
 H     20.83634622     11.94962896      2.15980533
 H     19.30637739     11.04022925      2.13849336
 H     21.07013383     14.11284467      1.00657981
 H     19.64033047     13.07467475      0.79179563
 H     22.80141040     13.59794308      2.68039155
 H     21.25297384     12.72223683      2.61915899
 H     23.44698704     15.20563199      0.93034722
 H     22.02996493     14.14155604      0.76284388
 H     24.71443331     15.34800016      3.03686074
 H     23.15951464     14.48917074      2.92325343
 H     25.85364857     16.22818152      1.03897252
 H     24.43649871     15.15706690      0.92642735
 H     26.62130967     17.13342312      3.19659205
 H     25.07312247     16.27145683      3.02807747
 H     28.24250025     17.25193227      1.34678539
 H     26.81233785     16.19397972      1.28646468
 H     28.56909860     18.88113533      3.16423384
 H     27.03958126     17.99661268      2.94868091
 H     30.56929773     18.34809570      1.83038223
 H     29.11570306     17.32101258      1.80965907
 H     30.59710887     20.52520392      2.98082314
 H     29.09466305     19.60297843      2.73501151
 H     32.80155198     19.57416570      2.43305962
 H     31.31854419     18.58981161      2.43180591
 H     32.72945250     22.01932985      2.71601175
 H     31.25735152     21.05139731      2.46245315
 H     34.92468382     20.96302719      3.07555603
 H     33.41185399     20.02516729      3.06995545
 H     34.97047697     23.34561861      2.45487168
 H     33.52624577     22.33263336      2.21754542
 H     36.94478581     22.51672653      3.67106676
 H     35.40737437     21.62031833      3.63812645
 H     37.30394174     24.51797009      2.28177946
 H     35.87982569     23.46912106      2.08158985
 H     38.88746805     24.20608386      4.14168789
 H     37.33537208     23.33823242      4.06359411
 H     39.69609473     25.57944541      2.26443221
 H     38.28052870     24.51071545      2.11524854
 H     40.79300672     25.97622083      4.43317408
 H     39.23890507     25.11862153      4.30066678
 H     42.10206621     26.59410965      2.44102333
 H     40.68186537     25.52524776      2.34705253
 H     42.70871434     27.75695651      4.52521459
 H     41.16566582     26.88936262      4.33934160
 H     44.47436873     27.63489558      2.81300734
 H     43.03722627     26.58567574      2.76799704
 H     44.67997706     29.47610220      4.43528085
 H     43.15894660     28.58016032      4.20719938
 H     46.77189296     28.76978757      3.34482431
 H     45.30871139     27.75626286      3.33324726