1502
Step 1 E=       -43.7275
 C      0.00000000      0.00000000      0.00000000
 C      1.54000000      0.00000000      0.00000000
 C      2.16637443      1.40686000      0.00000000
 C      3.70637443      1.40686000      0.00000000
 C      4.33274886      2.81372001      0.00000000
 C      5.87274886      2.81372001      0.00000000
 C      6.49912329      4.22058001      0.00000000
 C      8.03912329      4.22058001      0.00000000
 C      8.66549772      5.62744002      0.00000000
 C     10.20549772      5.62744002      0.00000000
 C     10.83187215      7.03430002      0.00000000
 C     12.37187215      7.03430002      0.00000000
 C     12.99824658      8.44116003      0.00000000
 C     14.53824658      8.44116003      0.00000000
 C     15.16462101      9.84802003      0.00000000
 C     16.70462101      9.84802003      0.00000000
 C     17.33099544     11.25488004      0.00000000
 C     18.87099544     11.25488004      0.00000000
 C     19.49736987     12.66174004      0.00000000
 C     21.03736987     12.66174004      0.00000000
 C     21.66374430     14.06860005      0.00000000
 C     23.20374430     14.06860005      0.00000000
 C     23.83011873     15.47546005      0.00000000
 C     25.37011873     15.47546005      0.00000000
 C     25.99649316     16.88232006      0.00000000
 C     27.53649316     16.88232006      0.00000000
 C     28.16286759     18.28918006      0.00000000
 C     29.70286759     18.28918006      0.00000000
 C     30.32924202     19.69604007      0.00000000
 C     31.86924202     19.69604007      0.00000000
 C     32.49561646     21.10290007      0.00000000
 C     34.03561646     21.10290007      0.00000000
 C     34.66199089     22.50976008      0.00000000
 C     36.20199089     22.50976008      0.00000000
 C     36.82836532     23.91662008      0.00000000
 C     38.36836532     23.91662008      0.00000000
 C     38.99473975     25.32348009      0.00000000
 C     40.53473975     25.32348009      0.00000000
 C     41.16111418     26.73034009      0.00000000
 C     42.70111418     26.73034009      0.00000000
 C     43.32748861     28.13720010      0.00000000
 C     44.86748861     28.13720010      0.00000000
 C     45.49386304     29.54406010      0.00000000
 C     47.03386304     29.54406010      0.00000000
 C     47.66023747     30.95092010      0.00000000
 C     49.20023747     30.95092010      0.00000000
 C     49.82661190     32.35778011      0.00000000
 C     51.36661190     32.35778011      0.00000000
 C     51.99298633     33.76464011      0.00000000
 C     53.53298633     33.76464011      0.00000000
 C     54.15936076     35.17150012      0.00000000
 C     55.69936076     35.17150012      0.00000000
 C     56.32573519     36.57836012      0.00000000
 C     57.86573519     36.57836012      0.00000000
 C     58.49210962     37.98522013      0.00000000
 C     60.03210962     37.98522013      0.00000000
 C     60.65848405     39.39208013      0.00000000
 C     62.19848405     39.39208013      0.00000000
 C     62.82485848     40.79894014      0.00000000
 C     64.36485848     40.79894014      0.00000000
 C     64.99123291     42.20580014      0.00000000
 C     66.53123291     42.20580014      0.00000000
 C     67.15760734     43.61266015      0.00000000
 C     68.69760734     43.61266015      0.00000000
 C     69.32398177     45.01952015      0.00000000
 C     70.86398177     45.01952015      0.00000000
 C     71.49035620     46.42638016      0.00000000
 C     73.03035620     46.42638016      0.00000000
 C     73.65673063     47.83324016      0.00000000
 C     75.19673063     47.83324016      0.00000000
 C     75.82310506     49.24010017      0.00000000
 C     77.36310506     49.24010017      0.00000000
 C     77.98947949     50.64696017      0.00000000
 C     79.52947949     50.64696017      0.00000000
 C     80.15585392     52.05382018      0.00000000
 C     81.69585392     52.05382018      0.00000000
 C     82.32222835     53.46068018      0.00000000
 C     83.86222835     53.46068018      0.00000000
 C     84.48860278     54.86754019      0.00000000
 C     86.02860278     54.86754019      0.00000000
 C     86.65497721     56.27440019      0.00000000
 C     88.19497721     56.27440019      0.00000000
 C     88.82135164     57.68126020      0.00000000
 C     90.36135164     57.68126020      0.00000000
 C     90.98772607     59.08812020      0.00000000
 C     92.52772607     59.08812020      0.00000000
 C     93.15410050     60.49498021      0.00000000
 C     94.69410050     60.49498021      0.00000000
 C     95.32047493     61.90184021      0.00000000
 C     96.86047493     61.90184021      0.00000000
 C     97.48684937     63.30870021      0.00000000
 C     99.02684937     63.30870021      0.00000000
 C     99.65322380     64.71556022      0.00000000
 C    101.19322380     64.71556022      0.00000000
 C    101.81959823     66.12242022      0.00000000
 C    103.35959823     66.12242022      0.00000000
 C    103.98597266     67.52928023      0.00000000
 C    105.52597266     67.52928023      0.00000000
 C    106.15234709     68.93614023      0.00000000
 C    107.69234709     68.93614023      0.00000000
 C    108.31872152     70.34300024      0.00000000
 C    109.85872152     70.34300024      0.00000000
 C    110.48509595     71.74986024      0.00000000
 C    112.02509595     71.74986024      0.00000000
 C    112.65147038     73.15672025      0.00000000
 C    114.19147038     73.15672025      0.00000000
 C    114.81784481     74.56358025      0.00000000
 C    116.35784481     74.56358025      0.00000000
 C    116.98421924     75.97044026      0.00000000
 C    118.52421924     75.97044026      0.00000000
 C    119.15059367     77.37730026      0.00000000
 C    120.69059367     77.37730026      0.00000000
 C    121.31696810     78.78416027      0.00000000
 C    122.85696810     78.78416027      0.00000000
 C    123.48334253     80.19102027      0.00000000
 C    125.02334253     80.19102027      0.00000000
 C    125.64971696     81.59788028      0.00000000
 C    127.18971696     81.59788028      0.00000000
 C    127.81609139     83.00474028      0.00000000
 C    129.35609139     83.00474028      0.00000000
 C    129.98246582     84.41160029      0.00000000
 C    131.52246582     84.41160029      0.00000000
 C    132.14884025     85.81846029      0.00000000
 C    133.68884025     85.81846029      0.00000000
 C    134.31521468     87.22532030      0.00000000
 C    135.85521468     87.22532030      0.00000000
 C    136.48158911     88.63218030      0.00000000
 C    138.02158911     88.63218030      0.00000000
 C    138.64796354     90.03904031      0.00000000
 C    140.18796354     90.03904031      0.00000000
 C    140.81433797     91.44590031      0.00000000
 C    142.35433797     91.44590031      0.00000000
 C    142.98071240     92.85276031      0.00000000
 C    144.52071240     92.85276031      0.00000000
 C    145.14708683     94.25962032      0.00000000
 C    146.68708683     94.25962032      0.00000000
 C    147.31346126     95.66648032      0.00000000
 C    148.85346126     95.66648032      0.00000000
 C    149.47983569     97.07334033      0.00000000
 C    151.01983569     97.07334033      0.00000000
 C    151.64621012     98.48020033      0.00000000
 C    153.18621012     98.48020033      0.00000000
 C    153.81258455     99.88706034      0.00000000
 C    155.35258455     99.88706034      0.00000000
 C    155.97895898    101.29392034      0.00000000
 C    157.51895898    101.29392034      0.00000000
 C    158.14533341    102.70078035      0.00000000
 C    159.68533341    102.70078035      0.00000000
 C    160.31170784    104.10764035      0.00000000
 C    161.85170784    104.10764035      0.00000000
 C    162.47808228    105.51450036      0.00000000
 C    164.01808228    105.51450036      0.00000000
 C    164.64445671    106.92136036      0.00000000
 C    166.18445671    106.92136036      0.00000000
 C    166.81083114    108.32822037      0.00000000
 C    168.35083114    108.32822037      0.00000000
 C    168.97720557    109.73508037      0.00000000
 C    170.51720557    109.73508037      0.00000000
 C    171.14358000    111.14194038      0.00000000
 C    172.68358000    111.14194038      0.00000000
 C    173.30995443    112.54880038      0.00000000
 C    174.84995443    112.54880038      0.00000000
 C    175.47632886    113.95566039      0.00000000
 C    177.01632886    113.95566039      0.00000000
 C    177.64270329    115.36252039      0.00000000
 C    179.18270329    115.36252039      0.00000000
 C    179.80907772    116.76938040      0.00000000
 C    181.34907772    116.76938040      0.00000000
 C    181.97545215    118.17624040      0.00000000
 C    183.51545215    118.17624040      0.00000000
 C    184.14182658    119.58310041      0.00000000
 C    185.68182658    119.58310041      0.00000000
 C    186.30820101    120.98996041      0.00000000
 C    187.84820101    120.98996041      0.00000000
 C    188.47457544    122.39682041      0.00000000
 C    190.01457544    122.39682041      0.00000000
 C    190.64094987    123.80368042      0.00000000
 C    192.18094987    123.80368042      0.00000000
 C    192.80732430    125.21054042      0.00000000
 C    194.34732430    125.21054042      0.00000000
 C    194.97369873    126.61740043      0.00000000
 C    196.51369873    126.61740043      0.00000000
 C    197.14007316    128.02426043      0.00000000
 C    198.68007316    128.02426043      0.00000000
 C    199.30644759    129.43112044      0.00000000
 C    200.84644759    129.43112044      0.00000000
 C    201.47282202    130.83798044      0.00000000
 C    203.01282202    130.83798044      0.00000000
 C    203.63919645    132.24484045      0.00000000
 C    205.17919645    132.24484045      0.00000000
 C    205.80557088    133.65170045      0.00000000
 C    207.34557088    133.65170045      0.00000000
 C    207.97194531    135.05856046      0.00000000
 C    209.51194531    135.05856046      0.00000000
 C    210.13831974    136.46542046      0.00000000
 C    211.67831974    136.46542046      0.00000000
 C    212.30469417    137.87228047      0.00000000
 C    213.84469417    137.87228047      0.00000000
 C    214.47106860    139.27914047      0.00000000
 C    216.01106860    139.27914047      0.00000000
 C    216.63744303    140.68600048      0.00000000
 C    218.17744303    140.68600048      0.00000000
 C    218.80381746    142.09286048      0.00000000
 C    220.34381746    142.09286048      0.00000000
 C    220.97019189    143.49972049      0.00000000
 C    222.51019189    143.49972049      0.00000000
 C    223.13656632    144.90658049      0.00000000
 C    224.67656632    144.90658049      0.00000000
 C    225.30294076    146.31344050      0.00000000
 C    226.84294076    146.31344050      0.00000000
 C    227.46931519    147.72030050      0.00000000
 C    229.00931519    147.72030050      0.00000000
 C    229.63568962    149.12716051      0.00000000
 C    231.17568962    149.12716051      0.00000000
 C    231.80206405    150.53402051      0.00000000
 C    233.34206405    150.53402051      0.00000000
 C    233.96843848    151.94088052      0.00000000
 C    235.50843848    151.94088052      0.00000000
 C    236.13481291    153.34774052      0.00000000
 C    237.67481291    153.34774052      0.00000000
 C    238.30118734    154.75460052      0.00000000
 C    239.84118734    154.75460052      0.00000000
 C    240.46756177    156.16146053      0.00000000
 C    242.00756177    156.16146053      0.00000000
 C    242.63393620    157.56832053      0.00000000
 C    244.17393620    157.56832053      0.00000000
 C    244.80031063    158.97518054      0.00000000
 C    246.34031063    158.97518054      0.00000000
 C    246.96668506    160.38204054      0.00000000
 C    248.50668506    160.38204054      0.00000000
 C    249.13305949    161.78890055      0.00000000
 C    250.67305949    161.78890055      0.00000000
 C    251.29943392    163.19576055      0.00000000
 C    252.83943392    163.19576055      0.00000000
 C    253.46580835    164.60262056      0.00000000
 C    255.00580835    164.60262056      0.00000000
 C    255.63218278    166.00948056      0.00000000
 C    257.17218278    166.00948056      0.00000000
 C    257.79855721    167.41634057      0.00000000
 C    259.33855721    167.41634057      0.00000000
 C    259.96493164    168.82320057      0.00000000
 C    261.50493164    168.82320057      0.00000000
 C    262.13130607    170.23006058      0.00000000
 C    263.67130607    170.23006058      0.00000000
 C    264.29768050    171.63692058      0.00000000
 C    265.83768050    171.63692058      0.00000000
 C    266.46405493    173.04378059      0.00000000
 C    268.00405493    173.04378059      0.00000000
 C    268.63042936    174.45064059      0.00000000
 C    270.17042936    174.45064059      0.00000000
 C    270.79680379    175.85750060      0.00000000
 C    272.33680379    175.85750060      0.00000000
 C    272.96317822    177.26436060      0.00000000
 C    274.50317822    177.26436060      0.00000000
 C    275.12955265    178.67122061      0.00000000
 C    276.66955265    178.67122061      0.00000000
 C    277.29592708    180.07808061      0.00000000
 C    278.83592708    180.07808061      0.00000000
 C    279.46230151    181.48494062      0.00000000
 C    281.00230151    181.48494062      0.00000000
 C    281.62867594    182.89180062      0.00000000
 C    283.16867594    182.89180062      0.00000000
 C    283.79505037    184.29866062      0.00000000
 C    285.33505037    184.29866062      0.00000000
 C    285.96142480    185.70552063      0.00000000
 C    287.50142480    185.70552063      0.00000000
 C    288.12779923    187.11238063      0.00000000
 C    289.66779923    187.11238063      0.00000000
 C    290.29417367    188.51924064      0.00000000
 C    291.83417367    188.51924064      0.00000000
 C    292.46054810    189.92610064      0.00000000
 C    294.00054810    189.92610064      0.00000000
 C    294.62692253    191.33296065      0.00000000
 C    296.16692253    191.33296065      0.00000000
 C    296.79329696    192.73982065      0.00000000
 C    298.33329696    192.73982065      0.00000000
 C    298.95967139    194.14668066      0.00000000
 C    300.49967139    194.14668066      0.00000000
 C    301.12604582    195.55354066      0.00000000
 C    302.66604582    195.55354066      0.00000000
 C    303.29242025    196.96040067      0.00000000
 C    304.83242025    196.96040067      0.00000000
 C    305.45879468    198.36726067      0.00000000
 C    306.99879468    198.36726067      0.00000000
 C    307.62516911    199.77412068      0.00000000
 C    309.16516911    199.77412068      0.00000000
 C    309.79154354    201.18098068      0.00000000
 C    311.33154354    201.18098068      0.00000000
 C    311.95791797    202.58784069      0.00000000
 C    313.49791797    202.58784069      0.00000000
 C    314.12429240    203.99470069      0.00000000
 C    315.66429240    203.99470069      0.00000000
 C    316.29066683    205.40156070      0.00000000
 C    317.83066683    205.40156070      0.00000000
 C    318.45704126    206.80842070      0.00000000
 C    319.99704126    206.80842070      0.00000000
 C    320.62341569    208.21528071      0.00000000
 C    322.16341569    208.21528071      0.00000000
 C    322.78979012    209.62214071      0.00000000
 C    324.32979012    209.62214071      0.00000000
 C    324.95616455    211.02900072      0.00000000
 C    326.49616455    211.02900072      0.00000000
 C    327.12253898    212.43586072      0.00000000
 C    328.66253898    212.43586072      0.00000000
 C    329.28891341    213.84272072      0.00000000
 C    330.82891341    213.84272072      0.00000000
 C    331.45528784    215.24958073      0.00000000
 C    332.99528784    215.24958073      0.00000000
 C    333.62166227    216.65644073      0.00000000
 C    335.16166227    216.65644073      0.00000000
 C    335.78803670    218.06330074      0.00000000
 C    337.32803670    218.06330074      0.00000000
 C    337.95441113    219.47016074      0.00000000
 C    339.49441113    219.47016074      0.00000000
 C    340.12078556    220.87702075      0.00000000
 C    341.66078556    220.87702075      0.00000000
 C    342.28715999    222.28388075      0.00000000
 C    343.82715999    222.28388075      0.00000000
 C    344.45353442    223.69074076      0.00000000
 C    345.99353442    223.69074076      0.00000000
 C    346.61990885    225.09760076      0.00000000
 C    348.15990885    225.09760076      0.00000000
 C    348.78628328    226.50446077      0.00000000
 C    350.32628328    226.50446077      0.00000000
 C    350.95265771    227.91132077      0.00000000
 C    352.49265771    227.91132077      0.00000000
 C    353.11903214    229.31818078      0.00000000
 C    354.65903214    229.31818078      0.00000000
 C    355.28540658    230.72504078      0.00000000
 C    356.82540658    230.72504078      0.00000000
 C    357.45178101    232.13190079      0.00000000
 C    358.99178101    232.13190079      0.00000000
 C    359.61815544    233.53876079      0.00000000
 C    361.15815544    233.53876079      0.00000000
 C    361.78452987    234.94562080      0.00000000
 C    363.32452987    234.94562080      0.00000000
 C    363.95090430    236.35248080      0.00000000
 C    365.49090430    236.35248080      0.00000000
 C    366.11727873    237.75934081      0.00000000
 C    367.65727873    237.75934081      0.00000000
 C    368.28365316    239.16620081      0.00000000
 C    369.82365316    239.16620081      0.00000000
 C    370.45002759    240.57306082      0.00000000
 C    371.99002759    240.57306082      0.00000000
 C    372.61640202    241.97992082      0.00000000
 C    374.15640202    241.97992082      0.00000000
 C    374.78277645    243.38678083      0.00000000
 C    376.32277645    243.38678083      0.00000000
 C    376.94915088    244.79364083      0.00000000
 C    378.48915088    244.79364083      0.00000000
 C    379.11552531    246.20050083      0.00000000
 C    380.65552531    246.20050083      0.00000000
 C    381.28189974    247.60736084      0.00000000
 C    382.82189974    247.60736084      0.00000000
 C    383.44827417    249.01422084      0.00000000
 C    384.98827417    249.01422084      0.00000000
 C    385.61464860    250.42108085      0.00000000
 C    387.15464860    250.42108085      0.00000000
 C    387.78102303    251.82794085      0.00000000
 C    389.32102303    251.82794085      0.00000000
 C    389.94739746    253.23480086      0.00000000
 C    391.48739746    253.23480086      0.00000000
 C    392.11377189    254.64166086      0.00000000
 C    393.65377189    254.64166086      0.00000000
 C    394.28014632    256.04852087      0.00000000
 C    395.82014632    256.04852087      0.00000000
 C    396.44652075    257.45538087      0.00000000
 C    397.98652075    257.45538087      0.00000000
 C    398.61289518    258.86224088      0.00000000
 C    400.15289518    258.86224088      0.00000000
 C    400.77926961    260.26910088      0.00000000
 C    402.31926961    260.26910088      0.00000000
 C    402.94564404    261.67596089      0.00000000
 C    404.48564404    261.67596089      0.00000000
 C    405.11201847    263.08282089      0.00000000
 C    406.65201847    263.08282089      0.00000000
 C    407.27839290    264.48968090      0.00000000
 C    408.81839290    264.48968090      0.00000000
 C    409.44476733    265.89654090      0.00000000
 C    410.98476733    265.89654090      0.00000000
 C    411.61114176    267.30340091      0.00000000
 C    413.15114176    267.30340091      0.00000000
 C    413.77751619    268.71026091      0.00000000
 C    415.31751619    268.71026091      0.00000000
 C    415.94389062    270.11712092      0.00000000
 C    417.48389062    270.11712092      0.00000000
 C    418.11026505    271.52398092      0.00000000
 C    419.65026505    271.52398092      0.00000000
 C    420.27663949    272.93084093      0.00000000
 C    421.81663949    272.93084093      0.00000000
 C    422.44301392    274.33770093      0.00000000
 C    423.98301392    274.33770093      0.00000000
 C    424.60938835    275.74456093      0.00000000
 C    426.14938835    275.74456093      0.00000000
 C    426.77576278    277.15142094      0.00000000
 C    428.31576278    277.15142094      0.00000000
 C    428.94213721    278.55828094      0.00000000
 C    430.48213721    278.55828094      0.00000000
 C    431.10851164    279.96514095      0.00000000
 C    432.64851164    279.96514095      0.00000000
 C    433.27488607    281.37200095      0.00000000
 C    434.81488607    281.37200095      0.00000000
 C    435.44126050    282.77886096      0.00000000
 C    436.98126050    282.77886096      0.00000000
 C    437.60763493    284.18572096      0.00000000
 C    439.14763493    284.18572096      0.00000000
 C    439.77400936    285.59258097      0.00000000
 C    441.31400936    285.59258097      0.00000000
 C    441.94038379    286.99944097      0.00000000
 C    443.48038379    286.99944097      0.00000000
 C    444.10675822    288.40630098      0.00000000
 C    445.64675822    288.40630098      0.00000000
 C    446.27313265    289.81316098      0.00000000
 C    447.81313265    289.81316098      0.00000000
 C    448.43950708    291.22002099      0.00000000
 C    449.97950708    291.22002099      0.00000000
 C    450.60588151    292.62688099      0.00000000
 C    452.14588151    292.62688099      0.00000000
 C    452.77225594    294.03374100      0.00000000
 C    454.31225594    294.03374100      0.00000000
 C    454.93863037    295.44060100      0.00000000
 C    456.47863037    295.44060100      0.00000000
 C    457.10500480    296.84746101      0.00000000
 C    458.64500480    296.84746101      0.00000000
 C    459.27137923    298.25432101      0.00000000
 C    460.81137923    298.25432101      0.00000000
 C    461.43775366    299.66118102      0.00000000
 C    462.97775366    299.66118102      0.00000000
 C    463.60412809    301.06804102      0.00000000
 C    465.14412809    301.06804102      0.00000000
 C    465.77050252    302.47490103      0.00000000
 C    467.31050252    302.47490103      0.00000000
 C    467.93687695    303.88176103      0.00000000
 C    469.47687695    303.88176103      0.00000000
 C    470.10325138    305.28862104      0.00000000
 C    471.64325138    305.28862104      0.00000000
 C    472.26962581    306.69548104      0.00000000
 C    473.80962581    306.69548104      0.00000000
 C    474.43600024    308.10234104      0.00000000
 C    475.97600024    308.10234104      0.00000000
 C    476.60237467    309.50920105      0.00000000
 C    478.14237467    309.50920105      0.00000000
 C    478.76874910    310.91606105      0.00000000
 C    480.30874910    310.91606105      0.00000000
 C    480.93512353    312.32292106      0.00000000
 C    482.47512353    312.32292106      0.00000000
 C    483.10149797    313.72978106      0.00000000
 C    484.64149797    313.72978106      0.00000000
 C    485.26787240    315.13664107      0.00000000
 C    486.80787240    315.13664107      0.00000000
 C    487.43424683    316.54350107      0.00000000
 C    488.97424683    316.54350107      0.00000000
 C    489.60062126    317.95036108      0.00000000
 C    491.14062126    317.95036108      0.00000000
 C    491.76699569    319.35722108      0.00000000
 C    493.30699569    319.35722108      0.00000000
 C    493.93337012    320.76408109      0.00000000
 C    495.47337012    320.76408109      0.00000000
 C    496.09974455    322.17094109      0.00000000
 C    497.63974455    322.17094109      0.00000000
 C    498.26611898    323.57780110      0.00000000
 C    499.80611898    323.57780110      0.00000000
 C    500.43249341    324.98466110      0.00000000
 C    501.97249341    324.98466110      0.00000000
 C    502.59886784    326.39152111      0.00000000
 C    504.13886784    326.39152111      0.00000000
 C    504.76524227    327.79838111      0.00000000
 C    506.30524227    327.79838111      0.00000000
 C    506.93161670    329.20524112      0.00000000
 C    508.47161670    329.20524112      0.00000000
 C    509.09799113    330.61210112      0.00000000
 C    510.63799113    330.61210112      0.00000000
 C    511.26436556    332.01896113      0.00000000
 C    512.80436556    332.01896113      0.00000000
 C    513.43073999    333.42582113      0.00000000
 C    514.97073999    333.42582113      0.00000000
 C    515.59711442    334.83268114      0.00000000
 C    517.13711442    334.83268114      0.00000000
 C    517.76348885    336.23954114      0.00000000
 C    519.30348885    336.23954114      0.00000000
 C    519.92986328    337.64640114      0.00000000
 C    521.46986328    337.64640114      0.00000000
 C    522.09623771    339.05326115      0.00000000
 C    523.63623771    339.05326115      0.00000000
 C    524.26261214    340.46012115      0.00000000
 C    525.80261214    340.46012115      0.00000000
 C    526.42898657    341.86698116      0.00000000
 C    527.96898657    341.86698116      0.00000000
 C    528.59536100    343.27384116      0.00000000
 C    530.13536100    343.27384116      0.00000000
 C    530.76173543    344.68070117      0.00000000
 C    532.30173543    344.68070117      0.00000000
 C    532.92810986    346.08756117      0.00000000
 C    534.46810986    346.08756117      0.00000000
 C    535.09448429    347.49442118      0.00000000
 C    536.63448429    347.49442118      0.00000000
 C    537.26085872    348.90128118      0.00000000
 C    538.80085872    348.90128118      0.00000000
 C    539.42723315    350.30814119      0.00000000
 C    540.96723315    350.30814119      0.00000000
 H     -0.36333333      0.00000000      1.02766186
 H     -0.36333333     -0.88998127     -0.51383093
 H     -0.36333333      0.88998127     -0.51383093
 H      2.62914887     -0.04306674      0.00000000
 H      1.13634667     -1.01250382      0.00000000
 H      2.57002776      2.41936383      0.00000000
 H      1.07722556      1.44992674      0.00000000
 H      4.79552330      1.36379327      0.00000000
 H      3.30272110      0.39435618      0.00000000
 H      4.73640219      3.82622383      0.00000000
 H      3.24359999      2.85678675      0.00000000
 H      6.96189773      2.77065327      0.00000000
 H      5.46909553      1.80121619      0.00000000
 H      6.90277662      5.23308384      0.00000000
 H      5.40997442      4.26364675      0.00000000
 H      9.12827216      4.17751328      0.00000000
 H      7.63546996      3.20807619      0.00000000
 H      9.06915105      6.63994384      0.00000000
 H      7.57634885      5.67050676      0.00000000
 H     11.29464659      5.58437328      0.00000000
 H      9.80184439      4.61493620      0.00000000
 H     11.23552548      8.04680384      0.00000000
 H      9.74272328      7.07736676      0.00000000
 H     13.46102102      6.99123329      0.00000000
 H     11.96821882      6.02179620      0.00000000
 H     13.40189991      9.45366385      0.00000000
 H     11.90909771      8.48422677      0.00000000
 H     15.62739545      8.39809329      0.00000000
 H     14.13459325      7.42865621      0.00000000
 H     15.56827434     10.86052385      0.00000000
 H     14.07547214      9.89108677      0.00000000
 H     17.79376988      9.80495330      0.00000000
 H     16.30096768      8.83551621      0.00000000
 H     17.73464877     12.26738386      0.00000000
 H     16.24184657     11.29794678      0.00000000
 H     19.96014431     11.21181330      0.00000000
 H     18.46734211     10.24237622      0.00000000
 H     19.90102320     13.67424386      0.00000000
 H     18.40822101     12.70480678      0.00000000
 H     22.12651874     12.61867331      0.00000000
 H     20.63371654     11.64923622      0.00000000
 H     22.06739764     15.08110387      0.00000000
 H     20.57459544     14.11166679      0.00000000
 H     24.29289317     14.02553331      0.00000000
 H     22.80009097     13.05609623      0.00000000
 H     24.23377207     16.48796387      0.00000000
 H     22.74096987     15.51852679      0.00000000
 H     26.45926760     15.43239331      0.00000000
 H     24.96646540     14.46295623      0.00000000
 H     26.40014650     17.89482388      0.00000000
 H     24.90734430     16.92538679      0.00000000
 H     28.62564203     16.83925332      0.00000000
 H     27.13283983     15.86981624      0.00000000
 H     28.56652093     19.30168388      0.00000000
 H     27.07371873     18.33224680      0.00000000
 H     30.79201646     18.24611332      0.00000000
 H     29.29921426     17.27667624      0.00000000
 H     30.73289536     20.70854389      0.00000000
 H     29.24009316     19.73910680      0.00000000
 H     32.95839089     19.65297333      0.00000000
 H     31.46558869     18.68353625      0.00000000
 H     32.89926979     22.11540389      0.00000000
 H     31.40646759     21.14596681      0.00000000
 H     35.12476532     21.05983333      0.00000000
 H     33.63196312     20.09039625      0.00000000
 H     35.06564422     23.52226390      0.00000000
 H     33.57284202     22.55282681      0.00000000
 H     37.29113975     22.46669334      0.00000000
 H     35.79833755     21.49725626      0.00000000
 H     37.23201865     24.92912390      0.00000000
 H     35.73921645     23.95968682      0.00000000
 H     39.45751418     23.87355334      0.00000000
 H     37.96471198     22.90411626      0.00000000
 H     39.39839308     26.33598391      0.00000000
 H     37.90559088     25.36654682      0.00000000
 H     41.62388861     25.28041335      0.00000000
 H     40.13108641     24.31097626      0.00000000
 H     41.56476751     27.74284391      0.00000000
 H     40.07196531     26.77340683      0.00000000
 H     43.79026304     26.68727335      0.00000000
 H     42.29746084     25.71783627      0.00000000
 H     43.73114194     29.14970392      0.00000000
 H     42.23833974     28.18026683      0.00000000
 H     45.95663747     28.09413336      0.00000000
 H     44.46383528     27.12469627      0.00000000
 H     45.89751637     30.55656392      0.00000000
 H     44.40471417     29.58712684      0.00000000