500
Step 1 E=      1142.2986
 C      0.00000000      0.00000000      0.00000000
 C      1.54000000      0.00000000      0.00000000
 C      2.16637443      1.40686000      0.00000000
 C      3.68662354      1.41565367     -0.24569354
 C      4.23015900      2.76145945     -0.76045174
 C      5.29562715      2.62577972     -1.86406790
 C      4.98598050      3.43586682     -3.13665497
 C      4.80730589      2.57361162     -4.40005964
 C      3.33840732      2.36164155     -4.81116264
 C      2.98904857      2.92654462     -6.20056286
 C      1.50597586      3.30631160     -6.36751308
 C      0.86840131      2.78449621     -7.66859239
 C     -0.40714515      1.94971807     -7.45012806
 C     -1.71345112      2.75235144     -7.59484980
 C     -2.07673270      3.10047998     -9.05033357
 C     -2.67965033      1.92616284     -9.84347265
 C     -4.19740635      1.75254176     -9.64886434
 C     -5.04260337      2.87128106    -10.28578222
 C     -6.56037793      2.69746371    -10.09149405
 C     -7.21503881      1.73611900    -11.10086786
 C     -8.15708408      2.42745019    -12.10396899
 C     -8.22775796      1.73397016    -13.47717351
 C     -8.56974389      2.68261058    -14.64110090
 C     -8.13432798      2.16084955    -16.02304822
 C     -6.83151162      2.79165585    -16.54874104
 C     -5.55183657      2.16289363    -15.96677038
 C     -4.39070947      2.06038057    -16.97318725
 C     -4.28915581      0.69349240    -17.67525818
 C     -3.59653017     -0.39358296    -16.83256199
 C     -2.67967734     -1.32668236    -17.64515439
 C     -1.35043321     -0.67924717    -18.07589528
 C     -0.15213335     -1.64654072    -18.07135299
 C      0.20397366     -2.20914258    -19.45997351
 C      0.72296138     -1.15033415    -20.45051703
 C      0.48372129     -1.50584183    -21.92969872
 C      0.81784020     -0.36596645    -22.90982559
 C     -0.30246707      0.68004314    -23.05941019
 C     -1.30594962      0.36654460    -24.18472856
 C     -2.55033425      1.27379694    -24.18501349
 C     -3.10777443      1.57200120    -25.58926940
 C     -3.81522984      2.93490094    -25.70593620
 C     -3.11567427      3.92444984    -26.65620720
 C     -2.90084648      5.32552181    -26.05417202
 C     -1.56292831      5.97828956    -26.44846788
 C     -1.70177927      7.41277504    -26.99121259
 C     -1.03655366      8.48406833    -26.10724112
 C     -1.96917918      9.64855175    -25.72541915
 C     -1.25160922     11.00310126    -25.57746997
 C     -2.13247742     12.21919626    -25.91920693
 C     -1.43170934     13.57597465    -25.72001726
 C     -1.22896059     13.96551582    -24.24395811
 C     -0.67976410     15.38998794    -24.04181365
 C     -1.02768842     16.00727155    -22.67451354
 C     -2.30741848     16.86391819    -22.68140779
 C     -2.60453057     17.55691207    -21.33861820
 C     -1.85838019     18.88980713    -21.14304117
 C     -2.26854520     19.98942224    -22.14014260
 C     -3.46537726     20.84051571    -21.67664186
 C     -4.81518607     20.40083113    -22.27354523
 C     -5.08275637     20.94837046    -23.68783191
 C     -5.46883057     22.43884838    -23.71980517
 C     -6.86041074     22.73818666    -23.13201164
 C     -7.47160861     24.06680104    -23.61452690
 C     -7.14164540     25.27167960    -22.71397599
 C     -8.11800941     26.45292714    -22.86552656
 C     -9.20504458     26.51079883    -21.77621237
 C    -10.55836055     25.91726872    -22.20963813
 C    -11.75592092     26.85930434    -21.98599099
 C    -12.19974904     27.61910782    -23.24984037
 C    -13.35111645     28.61352789    -23.01092231
 C    -14.69038835     27.94565471    -22.64774715
 C    -15.81904450     28.94156692    -22.32233335
 C    -16.74223574     28.48924515    -21.17571966
 C    -16.05698518     28.45289820    -19.79705705
 C    -17.01646413     28.16192817    -18.62815305
 C    -17.44466384     29.41526800    -17.84241500
 C    -18.79268158     29.26690907    -17.11273164
 C    -18.73968880     29.63437298    -15.61815409
 C    -18.43587127     28.44315259    -14.69063649
 C    -16.93315504     28.16906892    -14.49487630
 C    -16.58544935     27.52311692    -13.14082801
 C    -15.07466442     27.34455066    -12.90157296
 C    -14.65478579     27.47275821    -11.42547515
 C    -13.92574085     28.78803515    -11.09360161
 C    -14.54287138     29.56659418     -9.91691314
 C    -13.85525339     30.91392325     -9.62797391
 C    -14.75042888     31.92922200     -8.89351540
 C    -15.17490698     33.13066588     -9.75835697
 C    -16.19965189     32.78279825    -10.85402387
 C    -17.57569706     33.44586641    -10.65796181
 C    -18.49220527     33.36377636    -11.89281966
 C    -19.95569441     33.75349902    -11.61368564
 C    -20.81093369     32.60752251    -11.04193079
 C    -20.88435542     32.58798175     -9.50380615
 C    -22.19912476     33.15042493     -8.93228253
 C    -22.19533783     34.67828847     -8.73936115
 C    -22.31501409     35.12443471     -7.27026921
 C    -21.21711227     36.10722732     -6.82268649
 C    -21.68384215     37.13145837     -5.77163274
 C    -20.72465433     37.28392665     -4.57651260
 C    -19.51550919     38.19572203     -4.85615022
 C    -18.98820621     38.93571580     -3.61278350
 C    -19.85681757     40.13158094     -3.18032442
 C    -19.21939031     41.50421840     -3.46519787
 C    -18.10879190     41.89707688     -2.47331411
 C    -18.08934955     43.39488034     -2.11581336
 C    -17.02996204     44.20815625     -2.88254695
 C    -16.77271135     45.60971740     -2.29855343
 C    -15.51961584     46.30361510     -2.86411299
 C    -15.48946504     47.82615765     -2.63486393
 C    -16.52521923     48.60543701     -3.46645093
 C    -17.81215656     48.95477655     -2.69615606
 C    -19.09286095     48.36624562     -3.31666199
 C    -20.17773361     48.00163998     -2.28626690
 C    -21.12173380     46.87389977     -2.74306627
 C    -20.77467441     45.49165487     -2.15950068
 C    -21.90738894     44.85995819     -1.32912901
 C    -22.04726551     43.33778166     -1.51624698
 C    -21.00418014     42.51276959     -0.73976260
 C    -21.29881379     42.38889802      0.76670573
 C    -21.50562758     40.94056033      1.24748216
 C    -20.61899171     40.54472502      2.44280273
 C    -21.40401511     40.25004381      3.73450751
 C    -20.51838997     40.10112360      4.98554343
 C    -19.78780105     41.39401532      5.39330664
 C    -20.21394955     41.94813873      6.76551096
 C    -19.03575049     42.35073391      7.67180235
 C    -18.69265450     41.30902294      8.75287747
 C    -17.18441611     41.16719976      9.02983077
 C    -16.77621348     39.78973488      9.58441269
 C    -15.96466638     38.93195288      8.59587774
 C    -16.81825786     37.95197587      7.76966551
 C    -17.03284795     38.38687148      6.30801681
 C    -16.85463929     37.25068781      5.28384478
 C    -15.72606068     37.49679628      4.26534542
 C    -15.92711934     36.77354558      2.92069534
 C    -16.31397215     37.70740793      1.75886660
 C    -15.12822135     38.12475916      0.86925264
 C    -14.77327997     37.09899414     -0.22318625
 C    -13.54780043     36.22788425      0.10993154
 C    -12.47461566     36.20800987     -0.99436891
 C    -11.02920759     36.23609253     -0.46370247
 C    -10.05842405     35.32876628     -1.24212293
 C     -9.16371596     36.08226521     -2.24378994
 C     -7.77602046     36.45300054     -1.68840134
 C     -7.44308742     37.95347276     -1.78503840
 C     -5.97650224     38.24732494     -2.15161553
 C     -5.38464413     39.47358109     -1.43217141
 C     -4.32484477     39.12573863     -0.37036590
 C     -3.87702055     40.32597667      0.48431657
 C     -3.10532441     41.40182288     -0.30222015
 C     -3.70039784     42.81669131     -0.17718042
 C     -2.74367858     43.84503558      0.45432280
 C     -2.29930323     44.96126712     -0.50908661
 C     -0.81376383     44.88925168     -0.90856935
 C     -0.55410765     45.14799969     -2.40430600
 C      0.82422544     44.66570290     -2.89337421
 C      0.85075247     43.19118148     -3.33686366
 C      2.20757235     42.73132023     -3.90181272
 C      2.21159572     41.28069756     -4.41880177
 C      2.55773054     40.23360807     -3.34390908
 C      1.34661643     39.75716587     -2.52061968
 C      1.38470260     38.26072719     -2.15892819
 C      0.68149716     37.35067924     -3.18309362
 C     -0.84249189     37.24766178     -2.98702022
 C     -1.27292270     36.16180723     -1.98340215
 C     -1.82907143     34.88549497     -2.64167687
 C     -2.32105070     33.82633484     -1.63781621
 C     -2.63520941     32.45920465     -2.27331550
 C     -3.84803224     31.74292569     -1.65073600
 C     -4.39275542     30.57989151     -2.50057607
 C     -5.15613837     29.51587945     -1.69019047
 C     -4.79011629     28.06608858     -2.05861178
 C     -4.33721295     27.21069163     -0.86079100
 C     -3.08723950     26.35525636     -1.13899393
 C     -2.40403914     25.81314758      0.13024022
 C     -1.03818453     25.15033625     -0.12806640
 C     -0.04091818     25.29628995      1.03630354
 C      1.43661058     25.22102999      0.60870008
 C      1.92704507     26.45589613     -0.16987531
 C      3.06943607     26.15958336     -1.15918898
 C      4.24522320     27.15041295     -1.07327432
 C      5.05279367     27.05225720      0.23431713
 C      5.22781388     28.39661470      0.96484492
 C      6.42348013     28.43141756      1.93477841
 C      6.62443082     29.78932338      2.63285478
 C      7.51587998     30.77060193      1.84926637
 C      8.86792948     31.06507845      2.52517001
 C      9.08224711     32.54892198      2.87713070
 C     10.52591953     33.04096975      2.66429521
 C     10.62498981     34.40196422      1.95051715
 C     11.29151713     35.50459675      2.79404714
 C     12.42510773     36.25090956      2.06631810
 C     13.49083619     36.84244896      3.00754283
 C     13.14206629     38.24173261      3.54788053
 C     13.70078299     38.52727959      4.95425835
 C     13.77658785     40.02465257      5.30600796
 C     13.51858126     40.33268807      6.79266418
 C     14.78923703     40.32930736      7.66273458
 C     14.53003693     40.62795695      9.15109734
 C     15.77792331     41.09613768      9.92258057
 C     15.66025947     42.51903347     10.49974847
 C     15.36109178     42.55967280     12.00986342
 C     15.79469888     43.86664466     12.69936284
 C     17.13366968     43.76288343     13.45301450
 C     17.59331060     45.08354102     14.09814531
 C     18.32351205     46.03276062     13.12995731
 C     17.93449161     47.51393388     13.29240383
 C     18.85674300     48.49007965     12.53861884
 C     18.84660019     49.92315916     13.10233882
 C     19.90709135     50.17591523     14.19003035
 C     19.37614543     50.94046142     15.41688224
 C     20.09918895     50.59427603     16.73178290
 C     19.64514087     49.26612464     17.36538706
 C     20.07002145     49.09606574     18.83581437
 C     19.63359132     47.75913853     19.46331288
 C     19.84855333     47.68227442     20.98629785
 C     20.78152378     46.54035485     21.43035396
 C     21.09739973     46.53982307     22.93761044
 C     21.91805459     47.75584226     23.40603646
 C     23.05109589     47.40595526     24.38858239
 C     22.55950904     46.95386424     25.77622647
 C     22.67589329     48.03643789     26.86530359
 C     21.36039310     48.78614304     27.14637558
 C     20.90903684     49.71048579     26.00030926
 C     20.88728750     51.20471330     26.37234570
 C     22.28095273     51.85796511     26.42293511
 C     22.63562629     52.67521245     25.16678486
 C     23.22261989     51.83459042     24.01770127
 C     23.48551401     52.63381908     22.72784848
 C     24.77944223     52.23290584     21.99530608
 C     25.79822858     53.37869693     21.85095535
 C     25.90126914     53.94921467     20.42424860
 C     25.53795665     55.44202905     20.31884820
 C     26.50559945     56.26203367     19.44542973
 C     27.44480606     57.18302963     20.24621521
 C     28.47196422     57.93583144     19.38028476
 C     28.98335953     59.24453396     20.01065971
 C     28.09845512     60.46976512     19.71510463
 C     28.28892762     61.63353965     20.70553336
 C     27.36555237     61.56621129     21.93616127
 C     28.08261369     61.15506909     23.23554003
 C     27.19911129     61.24439281     24.49373111
 C     27.96530964     61.63720904     25.77053787
 C     27.09037130     61.68284990     27.03702902
 C     27.68977995     62.51947138     28.18261785
 C     28.71111937     61.75706803     29.04702917
 C     29.17354133     62.52857705     30.29704508
 C     28.62179595     61.96588510     31.62013041
 C     29.11209902     60.54348390     31.94873006
 C     28.21712492     59.78779011     32.94850417
 C     28.27530580     58.25539630     32.80713875
 C     27.56865722     57.71505152     31.55004874
 C     27.29381370     56.20025902     31.58832076
 C     27.99884724     55.40733978     30.47216361
 C     27.11095979     55.12850730     29.24517204
 C     25.95700721     54.14570774     29.51738242
 C     25.10975959     53.81481002     28.27469253
 C     23.93179090     54.77972915     28.04464721
 C     22.74579125     54.55980873     29.00206030
 C     21.38935100     55.01746039     28.43441182
 C     20.18159831     54.62742191     29.30665229
 C     18.88943822     54.37145697     28.50890280
 C     18.58311848     52.88058196     28.27425428
 C     17.69207420     52.60968029     27.04777460
 C     16.23272544     52.26418177     27.39782025
 C     15.19785179     53.23170091     26.79404607
 C     13.73510380     52.81754261     27.03989402
 C     13.05559906     53.57465022     28.19603474
 C     13.61805237     53.22894127     29.58734046
 C     12.58193515     52.61467147     30.54688918
 C     11.63557225     53.64534439     31.19009256
 C     11.92970656     53.92414933     32.67580882
 C     10.70898879     53.75280174     33.59889501
 C     11.07015436     53.48632802     35.07203830
 C     10.30175853     52.30999433     35.70244047
 C     10.53021383     52.15253166     37.21723870
 C      9.30388007     51.62358836     37.98400105
 C      8.23570658     52.69472896     38.27255469
 C      7.14987547     52.24444301     39.26744832
 C      7.60443644     52.25693702     40.73878044
 C      8.33928152     50.97690341     41.17823084
 C      7.56021957     50.12640123     42.19867611
 C      7.74382180     48.60802293     42.01862733
 C      7.46810276     47.78829311     43.29284162
 C      8.69311505     47.01761385     43.81914796
 C      8.48392257     45.49451016     43.90855511
 C      8.66993806     44.75703396     42.56947815
 C      7.96841874     43.38757212     42.50587868
 C      7.24837618     43.11397450     41.17235588
 C      5.74159044     42.83238983     41.32036544
 C      5.31114333     41.44348180     40.81316751
 C      5.34158219     41.29932760     39.28023142
 C      5.96764427     39.98149104     38.78732872
 C      6.72290376     40.10805475     37.45122816
 C      7.52980173     38.85403301     37.06659176
 C      7.51483148     38.53742099     35.55956398
 C      6.82472926     37.20691059     35.20586776
 C      7.72116147     36.22278727     34.43158706
 C      7.19651247     35.86940683     33.02749815
 C      7.76268502     36.75890303     31.90506991
 C      6.72988257     37.14336334     30.82937972
 C      6.18098278     38.57519402     30.97140062
 C      4.64334975     38.66019450     30.96368254
 C      4.06827313     39.50070861     29.80851030
 C      3.74664599     38.68677692     28.54135949
 C      2.26784407     38.27433282     28.42038536
 C      1.45231157     39.14520617     27.44668811
 C      1.24928530     40.59549008     27.92319301
 C      2.21466639     41.60752510     27.27865871
 C      2.07799488     43.04015526     27.82682996
 C      2.98583880     43.33794372     29.03461365
 C      2.23522240     43.88690212     30.26213949
 C      2.57192341     45.35142290     30.59890547
 C      1.51513172     46.36345916     30.11872431
 C      2.09505223     47.53784814     29.30872263
 C      1.89213122     47.41020604     27.78749597
 C      2.16246403     48.71068133     27.00821155
 C      0.95165271     49.65933936     26.93348619
 C      0.08170469     49.46687003     25.67740259
 C     -0.96159187     50.57888329     25.46162771
 C     -2.02873936     50.23996782     24.40430443
 C     -1.90241016     51.05441979     23.10341668
 C     -1.69024899     50.19409136     21.84388398
 C     -2.77021907     50.38842589     20.76337543
 C     -2.50551249     51.57628359     19.81969937
 C     -3.74086039     52.45897815     19.56208362
 C     -3.41116837     53.94502892     19.32851078
 C     -3.52140720     54.38739772     17.85753925
 C     -4.00954594     55.83642462     17.67412272
 C     -5.41022761     55.95055036     17.04430834
 C     -5.88230065     57.39994729     16.82522938
 C     -5.52537756     57.97248168     15.44088467
 C     -6.43512705     57.47322046     14.30303842
 C     -7.90169158     57.92583191     14.42925791
 C     -8.84176735     56.85045370     15.00494815
 C    -10.01821287     56.48678025     14.08011433
 C    -10.94788336     55.39816784     14.64777251
 C    -11.86041825     55.88610054     15.78829947
 C    -13.21095336     56.45198787     15.31140700
 C    -13.40069405     57.95167483     15.60557955
 C    -14.07171044     58.73438869     14.46159703
 C    -13.54484595     60.17156521     14.29266670
 C    -12.72350084     60.39071160     13.00854557
 C    -11.23702019     60.01152396     13.14342334
 C    -10.29794724     61.21699058     13.33471434
 C     -9.69055600     61.75193146     12.02455628
 C    -10.00257200     63.23460779     11.74902600
 C     -8.76617425     64.07794970     11.38612792
 C     -8.93798063     65.58592359     11.64708257
 C     -9.25001218     66.40875097     10.38328218
 C    -10.71207523     66.88338056     10.29001698
 C    -11.72823313     65.74487187     10.08308442
 C    -12.73181183     65.58307459     11.23991260
 C    -13.83337385     64.54069133     10.97233411
 C    -13.38687837     63.08471118     11.20116503
 C    -14.40880996     62.03440025     10.72777009
 C    -14.31021212     61.69570840      9.22871496
 C    -15.55598958     62.09064886      8.41406132
 C    -16.12735875     60.95040499      7.55093840
 C    -15.21187137     60.52640451      6.38744949
 C    -15.65530533     59.23168444      5.68128643
 C    -14.52069618     58.21132910      5.47359175
 C    -13.55747268     58.57044093      4.32692738
 C    -12.52848410     59.65703947      4.69036393
 C    -12.26251470     60.67042224      3.56168522
 C    -11.08324243     60.29295351      2.64602466
 C    -11.37074262     59.10169331      1.71337103
 C    -10.77074509     57.76842425      2.19710295
 C    -11.04530393     56.58018604      1.25672675
 C     -9.78528299     56.01964867      0.57134723
 C     -9.81517195     56.11090602     -0.96565594
 C    -10.27855733     54.81734145     -1.66104409
 C     -9.23644512     53.68381877     -1.63405399
 C     -8.60788421     53.37802681     -3.00627936
 C     -9.05776660     52.03761442     -3.61660752
 C     -7.95745532     50.96046804     -3.64250661
 C     -8.02264224     50.02777220     -4.86620148
 C     -8.28305445     48.55111425     -4.51510777
 C     -9.29444785     47.85518254     -5.44481870
 C    -10.73352388     48.38810541     -5.31577058
 C    -10.98314232     49.70692138     -6.07076400
 C    -12.10008738     49.62194682     -7.12755776
 C    -12.41330582     50.96284803     -7.81710700
 C    -13.51678230     50.87395503     -8.88763850
 C    -13.12554811     51.49114306    -10.24322499
 C    -13.51613471     52.97326576    -10.39273893
 C    -13.98997445     53.35655924    -11.80700977
 C    -15.00364629     54.51555316    -11.83533801
 C    -15.94006201     54.49895925    -13.05781510
 C    -16.77442305     55.78248128    -13.22518550
 C    -18.24264156     55.63715127    -12.78380855
 C    -19.16704306     55.05010161    -13.86660796
 C    -20.63695937     55.49224397    -13.74228512
 C    -21.25694110     55.98423851    -15.06333168
 C    -20.80707941     57.39738455    -15.47835303
 C    -19.33376988     57.48166539    -15.91864356
 C    -19.06878101     56.92415250    -17.32951573
 C    -17.60703105     57.06345001    -17.79371748
 C    -17.21588926     56.09955628    -18.92928649
 C    -16.47490871     56.77593833    -20.09764223
 C    -16.04134545     55.80416315    -21.21086992
 C    -16.41715055     56.26951626    -22.62996013
 C    -16.00531138     55.28613307    -23.74124136
 C    -17.17610559     54.47215667    -24.32286267
 C    -17.00292640     54.09827185    -25.80671546
 C    -17.21209052     52.60181332    -26.10414144
 C    -18.51992601     52.28920302    -26.85476861
 C    -18.60470144     50.84849190    -27.39213682
 C    -19.32428233     50.72710989    -28.74825988
 C    -18.43757809     51.06737526    -29.96052019
 C    -17.32164995     50.04042492    -30.22824654
 C    -16.53080800     50.29835567    -31.52425609
 C    -15.00275765     50.21219038    -31.35326582
 C    -14.46926754     48.77533397    -31.20349278
 C    -14.52166662     47.94918035    -32.50207837
 C    -14.57285350     46.42696302    -32.27440690
 C    -14.43392058     45.59581135    -33.56339276
 C    -13.34169185     44.51229503    -33.49535765
 C    -11.98131766     44.95767796    -34.06335071
 C    -10.91307715     43.84845727    -34.07292436
 C    -11.11016318     42.79859237    -35.18222179
 C    -10.76664741     41.36044303    -34.75172974
 C     -9.39724386     40.86644725    -35.25402654
 C     -9.35607135     39.36260175    -35.58319749
 C     -7.96097572     38.84668064    -35.98211302
 C     -7.92616647     37.34988482    -36.34265507
 C     -8.21318325     37.05627713    -37.82691108
 C     -6.99475055     36.53073115    -38.60846286
 C     -6.80377576     35.00523000    -38.51916064
 C     -5.66374350     34.46395504    -39.40174087
 C     -6.09983845     33.35620312    -40.37862720
 C     -5.04200456     33.00654031    -41.44179387
 C     -5.15620705     33.83472681    -42.73510934
 C     -6.05211085     33.19459195    -43.81176330
 C     -5.29872217     32.78439682    -45.09072595
 C     -6.21927587     32.39826504    -46.26336534
 C     -6.89189800     31.02202867    -46.10476861
 C     -5.91553161     29.83413685    -46.18974929
 C     -6.34435610     28.61021815    -45.35924789
 C     -6.27654636     28.83144085    -43.83672947
 C     -5.87810185     27.57617199    -43.03851767
 C     -6.35379431     27.58807424    -41.57387607
 C     -7.78196332     27.04745149    -41.37472700
 C     -8.60356237     27.81993216    -40.32599033
 C     -8.12466306     27.61123573    -38.87730083
 C     -8.60628080     26.29362432    -38.24204929
 C     -7.47891257     25.28012827    -37.97100201
 C     -7.02006842     25.23168976    -36.50174514
 C     -6.56413920     23.83722207    -36.03356952
 C     -7.07935340     23.44625309    -34.63596529
 C     -6.64751837     22.04014163    -34.17992904
 C     -6.96101046     21.73685323    -32.70299341
 C     -6.08232148     20.63029333    -32.09059577
 C     -6.02397242     20.65644030    -30.55192371
 C     -4.59826331     20.77051926    -29.98101258
 C     -4.54521759     21.25883969    -28.52144781
 C     -4.33403239     20.13340078    -27.49169634
 C     -5.54587847     19.19701119    -27.32982106
 C     -5.48913526     17.93995559    -28.21762252
 C     -4.93292143     16.69374153    -27.50405634
 C     -4.97110021     15.41326778    -28.35876643
 C     -6.20238237     14.52484526    -28.10137630
 C     -6.46861475     13.48746035    -29.20797147
 C     -6.51692066     12.03290070    -28.70446104
 C     -7.84957814     11.31549790    -28.98899094
 C     -8.78929232     11.23372868    -27.77167789
 C     -8.96631101      9.81017446    -27.21153707
 C    -10.32674643      9.56943232    -26.53119988
 C    -10.93610480      8.18526420    -26.82164951
 C    -12.34824590      7.98795504    -26.23981911
 C    -13.10431153      6.78123697    -26.82616052
 C    -14.55454465      6.64731769    -26.32567123
 C    -14.70968516      5.74086183    -25.09041045
 C    -15.40771300      6.42103745    -23.89805217
 C    -14.45167521      7.19277604    -22.96960654
 C    -14.85232870      8.66177703    -22.73914421
 C    -14.69345606      9.55677994    -23.98225694
 C    -15.07088413     11.03086778    -23.74516397
 C    -15.85893760     11.66982188    -24.90374474
 C    -16.02069718     13.19663536    -24.78426899
 C    -17.43382639     13.64619843    -24.36886690
 C    -17.44955703     14.75561095    -23.30089854
 C    -17.52339625     16.18092007    -23.87938076
 C    -16.17646778     16.71628116    -24.39973851
 C    -15.78362900     18.08946954    -23.82386407
 C    -14.46236209     18.64864007    -24.38349078
 C    -13.94968223     19.89988922    -23.64651388
 C    -13.00760784     20.78057652    -24.48822981
 C    -13.19996819     22.29250365    -24.26760828
 C    -12.49321019     23.17322242    -25.31471266
 C    -10.95625449     23.14527662    -25.22205072
 C    -10.30088877     24.53828839    -25.26222501
 C     -9.31537812     24.73344579    -26.42939353
 C     -8.30300985     25.87309186    -26.21049330
 C     -8.91388347     27.28270068    -26.31743446
 C     -7.88393680     28.42196772    -26.20394224
 C     -7.92256873     29.16952177    -24.85810773
 C     -7.43680240     30.62871924    -24.93794390
 C     -5.90559759     30.77605697    -25.01076854
500
Step 10000 E=       918.5041
 C      0.00000000      0.00000000      0.00000000
 C      1.54000000      0.00000000      0.00000000
 C      2.16637443      1.25109388      0.64344321
 C      2.83555759      2.20495554     -0.36350358
 C      2.21174387      3.61240491     -0.40278100
 C      1.92695920      4.13187753     -1.82427524
 C      0.43280065      4.15038221     -2.19676391
 C      0.03109700      3.07974851     -3.22825683
 C     -1.29491428      2.36593808     -2.90612524
 C     -2.47742699      2.81481668     -3.78463062
 C     -3.53729300      3.64185452     -3.03343661
 C     -4.84969442      2.88225594     -2.76471279
 C     -5.16106730      2.67901744     -1.27027609
 C     -6.55159742      3.18655555     -0.84550431
 C     -7.63822432      3.01151986     -1.92263219
 C     -8.66543264      1.90962065     -1.60284913
 C     -8.91766995      1.70626907     -0.09731783
 C    -10.11109449      2.50976834      0.45197880
 C    -10.10110522      2.67871026      1.98265148
 C    -10.62920893      1.45334269      2.75153431
 C    -11.86009605      1.74726767      3.62910197
 C    -13.00652978      0.73302269      3.45999598
 C    -14.40981797      1.36734083      3.46476405
 C    -15.16071606      1.23691852      2.12657793
 C    -15.75158028      2.56122456      1.60822189
 C    -14.82592165      3.32480456      0.64297494
 C    -15.29164709      3.29742046     -0.82465918
 C    -14.59810492      2.22240216     -1.68194263
 C    -13.12753239      2.53778067     -2.01293027
 C    -12.81294812      2.54740436     -3.52042625
 C    -13.45124649      3.72130945     -4.28601233
 C    -12.55375438      4.31124875     -5.38967873
 C    -13.05997166      4.04241585     -6.81903976
 C    -14.25628646      4.91844429     -7.23497852
 C    -15.45719641      4.12180514     -7.77791624
 C    -16.72509306      4.23122513     -6.91069923
 C    -17.15103013      2.90508268     -6.25379451
 C    -17.91948494      1.95850021     -7.19457017
 C    -19.28706122      1.50732961     -6.64887777
 C    -20.43423670      1.61016026     -7.67113717
 C    -21.82123482      1.82340208     -7.03681539
 C    -22.34927448      3.26517604     -7.15539856
 C    -21.86952198      4.20236760     -6.03151711
 C    -20.53291983      4.90630675     -6.33079016
 C    -20.43760556      6.33579302     -5.76591478
 C    -19.20288864      6.57731974     -4.87780501
 C    -19.52824278      7.20685176     -3.51053249
 C    -19.33231123      8.73354451     -3.46133835
 C    -19.90851054      9.39860217     -2.19749791
 C    -21.13884820     10.28617304     -2.46223774
 C    -20.83342226     11.79557963     -2.46483781
 C    -21.59704217     12.58731038     -3.54263513
 C    -22.39202054     13.78649381     -2.99348262
 C    -23.91881540     13.64362854     -3.13521120
 C    -24.70983471     14.87822628     -2.66440671
 C    -24.15811309     16.21495626     -3.19389344
 C    -25.07933015     16.91394777     -4.21093326
 C    -25.35122184     18.39631885     -3.89430904
 C    -26.82218303     18.70571689     -3.55942691
 C    -27.65690251     19.16466869     -4.76947097
 C    -26.93459007     20.17267131     -5.68259498
 C    -27.79831243     21.38158891     -6.08768993
 C    -28.00338481     21.52377350     -7.60733754
 C    -27.37720475     22.79627233     -8.20754190
 C    -28.40485889     23.78928716     -8.78151797
 C    -28.35943686     25.18409371     -8.13032559
 C    -29.72406963     25.68086964     -7.61788917
 C    -30.49246537     26.55349165     -8.62769054
 C    -31.81277016     25.92992138     -9.11713450
 C    -32.87914274     26.96259968     -9.52704310
 C    -34.25019751     26.74561040     -8.86016646
 C    -35.00590081     28.04945062     -8.54312828
 C    -35.08768560     28.37649578     -7.04047972
 C    -33.76090936     28.18038592     -6.28364040
 C    -33.44801696     29.29552566     -5.26867157
 C    -32.45377808     30.35194274     -5.78546166
 C    -33.03287308     31.77734741     -5.85232351
 C    -32.16136176     32.84069020     -5.15851507
 C    -32.61777010     33.18964146     -3.72969583
 C    -31.82205299     32.47028914     -2.62472229
 C    -30.96578279     33.41056813     -1.75623122
 C    -29.84018893     32.69790536     -0.98373511
 C    -28.44114437     33.29584816     -1.22193406
 C    -27.57428967     32.48874823     -2.20618638
 C    -27.23174323     33.24396958     -3.50383913
 C    -25.97374922     32.71918623     -4.22053536
 C    -25.97708178     32.95206057     -5.74282260