250
Step 1 E=       420.3625
 C      0.00000000      0.00000000      0.00000000
 C      1.54000000      0.00000000      0.00000000
 C      2.16637443      1.40686000      0.00000000
 C      3.68662354      1.41565367     -0.24569354
 C      4.23015900      2.76145945     -0.76045174
 C      5.29562715      2.62577972     -1.86406790
 C      4.98598050      3.43586682     -3.13665497
 C      4.80730589      2.57361162     -4.40005964
 C      3.33840732      2.36164155     -4.81116264
 C      2.98904857      2.92654462     -6.20056286
 C      1.50597586      3.30631160     -6.36751308
 C      0.86840131      2.78449621     -7.66859239
 C     -0.40714515      1.94971807     -7.45012806
 C     -1.71345112      2.75235144     -7.59484980
 C     -2.07673270      3.10047998     -9.05033357
 C     -2.67965033      1.92616284     -9.84347265
 C     -4.19740635      1.75254176     -9.64886434
 C     -5.04260337      2.87128106    -10.28578222
 C     -6.56037793      2.69746371    -10.09149405
 C     -7.21503881      1.73611900    -11.10086786
 C     -8.15708408      2.42745019    -12.10396899
 C     -8.22775796      1.73397016    -13.47717351
 C     -8.56974389      2.68261058    -14.64110090
 C     -8.13432798      2.16084955    -16.02304822
 C     -6.83151162      2.79165585    -16.54874104
 C     -5.55183657      2.16289363    -15.96677038
 C     -4.39070947      2.06038057    -16.97318725
 C     -4.28915581      0.69349240    -17.67525818
 C     -3.59653017     -0.39358296    -16.83256199
 C     -2.67967734     -1.32668236    -17.64515439
 C     -1.35043321     -0.67924717    -18.07589528
 C     -0.15213335     -1.64654072    -18.07135299
 C      0.20397366     -2.20914258    -19.45997351
 C      0.72296138     -1.15033415    -20.45051703
 C      0.48372129     -1.50584183    -21.92969872
 C      0.81784020     -0.36596645    -22.90982559
 C     -0.30246707      0.68004314    -23.05941019
 C     -1.30594962      0.36654460    -24.18472856
 C     -2.55033425      1.27379694    -24.18501349
 C     -3.10777443      1.57200120    -25.58926940
 C     -3.81522984      2.93490094    -25.70593620
 C     -3.11567427      3.92444984    -26.65620720
 C     -2.90084648      5.32552181    -26.05417202
 C     -1.56292831      5.97828956    -26.44846788
 C     -1.70177927      7.41277504    -26.99121259
 C     -1.03655366      8.48406833    -26.10724112
 C     -1.96917918      9.64855175    -25.72541915
 C     -1.25160922     11.00310126    -25.57746997
 C     -2.13247742     12.21919626    -25.91920693
 C     -1.43170934     13.57597465    -25.72001726
 C     -1.22896059     13.96551582    -24.24395811
 C     -0.67976410     15.38998794    -24.04181365
 C     -1.02768842     16.00727155    -22.67451354
 C     -2.30741848     16.86391819    -22.68140779
 C     -2.60453057     17.55691207    -21.33861820
 C     -1.85838019     18.88980713    -21.14304117
 C     -2.26854520     19.98942224    -22.14014260
 C     -3.46537726     20.84051571    -21.67664186
 C     -4.81518607     20.40083113    -22.27354523
 C     -5.08275637     20.94837046    -23.68783191
 C     -5.46883057     22.43884838    -23.71980517
 C     -6.86041074     22.73818666    -23.13201164
 C     -7.47160861     24.06680104    -23.61452690
 C     -7.14164540     25.27167960    -22.71397599
 C     -8.11800941     26.45292714    -22.86552656
 C     -9.20504458     26.51079883    -21.77621237
 C    -10.55836055     25.91726872    -22.20963813
 C    -11.75592092     26.85930434    -21.98599099
 C    -12.19974904     27.61910782    -23.24984037
 C    -13.35111645     28.61352789    -23.01092231
 C    -14.69038835     27.94565471    -22.64774715
 C    -15.81904450     28.94156692    -22.32233335
 C    -16.74223574     28.48924515    -21.17571966
 C    -16.05698518     28.45289820    -19.79705705
 C    -17.01646413     28.16192817    -18.62815305
 C    -17.44466384     29.41526800    -17.84241500
 C    -18.79268158     29.26690907    -17.11273164
 C    -18.73968880     29.63437298    -15.61815409
 C    -18.43587127     28.44315259    -14.69063649
 C    -16.93315504     28.16906892    -14.49487630
 C    -16.58544935     27.52311692    -13.14082801
 C    -15.07466442     27.34455066    -12.90157296
 C    -14.65478579     27.47275821    -11.42547515
 C    -13.92574085     28.78803515    -11.09360161
 C    -14.54287138     29.56659418     -9.91691314
 C    -13.85525339     30.91392325     -9.62797391
 C    -14.75042888     31.92922200     -8.89351540
 C    -15.17490698     33.13066588     -9.75835697
 C    -16.19965189     32.78279825    -10.85402387
 C    -17.57569706     33.44586641    -10.65796181
 C    -18.49220527     33.36377636    -11.89281966
 C    -19.95569441     33.75349902    -11.61368564
 C    -20.81093369     32.60752251    -11.04193079
 C    -20.88435542     32.58798175     -9.50380615
 C    -22.19912476     33.15042493     -8.93228253
 C    -22.19533783     34.67828847     -8.73936115
 C    -22.31501409     35.12443471     -7.27026921
 C    -21.21711227     36.10722732     -6.82268649
 C    -21.68384215     37.13145837     -5.77163274
 C    -20.72465433     37.28392665     -4.57651260
 C    -19.51550919     38.19572203     -4.85615022
 C    -18.98820621     38.93571580     -3.61278350
 C    -19.85681757     40.13158094     -3.18032442
 C    -19.21939031     41.50421840     -3.46519787
 C    -18.10879190     41.89707688     -2.47331411
 C    -18.08934955     43.39488034     -2.11581336
 C    -17.02996204     44.20815625     -2.88254695
 C    -16.77271135     45.60971740     -2.29855343
 C    -15.51961584     46.30361510     -2.86411299
 C    -15.48946504     47.82615765     -2.63486393
 C    -16.52521923     48.60543701     -3.46645093
 C    -17.81215656     48.95477655     -2.69615606
 C    -19.09286095     48.36624562     -3.31666199
 C    -20.17773361     48.00163998     -2.28626690
 C    -21.12173380     46.87389977     -2.74306627
 C    -20.77467441     45.49165487     -2.15950068
 C    -21.90738894     44.85995819     -1.32912901
 C    -22.04726551     43.33778166     -1.51624698
 C    -21.00418014     42.51276959     -0.73976260
 C    -21.29881379     42.38889802      0.76670573
 C    -21.50562758     40.94056033      1.24748216
 C    -20.61899171     40.54472502      2.44280273
 C    -21.40401511     40.25004381      3.73450751
 C    -20.51838997     40.10112360      4.98554343
 C    -19.78780105     41.39401532      5.39330664
 C    -20.21394955     41.94813873      6.76551096
 C    -19.03575049     42.35073391      7.67180235
 C    -18.69265450     41.30902294      8.75287747
 C    -17.18441611     41.16719976      9.02983077
 C    -16.77621348     39.78973488      9.58441269
 C    -15.96466638     38.93195288      8.59587774
 C    -16.81825786     37.95197587      7.76966551
 C    -17.03284795     38.38687148      6.30801681
 C    -16.85463929     37.25068781      5.28384478
 C    -15.72606068     37.49679628      4.26534542
 C    -15.92711934     36.77354558      2.92069534
 C    -16.31397215     37.70740793      1.75886660
 C    -15.12822135     38.12475916      0.86925264
 C    -14.77327997     37.09899414     -0.22318625
 C    -13.54780043     36.22788425      0.10993154
 C    -12.47461566     36.20800987     -0.99436891
 C    -11.02920759     36.23609253     -0.46370247
 C    -10.05842405     35.32876628     -1.24212293
 C     -9.16371596     36.08226521     -2.24378994
 C     -7.77602046     36.45300054     -1.68840134
 C     -7.44308742     37.95347276     -1.78503840
 C     -5.97650224     38.24732494     -2.15161553
 C     -5.38464413     39.47358109     -1.43217141
 C     -4.32484477     39.12573863     -0.37036590
 C     -3.87702055     40.32597667      0.48431657
 C     -3.10532441     41.40182288     -0.30222015
 C     -3.70039784     42.81669131     -0.17718042
 C     -2.74367858     43.84503558      0.45432280
 C     -2.29930323     44.96126712     -0.50908661
 C     -0.81376383     44.88925168     -0.90856935
 C     -0.55410765     45.14799969     -2.40430600
 C      0.82422544     44.66570290     -2.89337421
 C      0.85075247     43.19118148     -3.33686366
 C      2.20757235     42.73132023     -3.90181272
 C      2.21159572     41.28069756     -4.41880177
 C      2.55773054     40.23360807     -3.34390908
 C      1.34661643     39.75716587     -2.52061968
 C      1.38470260     38.26072719     -2.15892819
 C      0.68149716     37.35067924     -3.18309362
 C     -0.84249189     37.24766178     -2.98702022
 C     -1.27292270     36.16180723     -1.98340215
 C     -1.82907143     34.88549497     -2.64167687
 C     -2.32105070     33.82633484     -1.63781621
 C     -2.63520941     32.45920465     -2.27331550
 C     -3.84803224     31.74292569     -1.65073600
 C     -4.39275542     30.57989151     -2.50057607
 C     -5.15613837     29.51587945     -1.69019047
 C     -4.79011629     28.06608858     -2.05861178
 C     -4.33721295     27.21069163     -0.86079100
 C     -3.08723950     26.35525636     -1.13899393
 C     -2.40403914     25.81314758      0.13024022
 C     -1.03818453     25.15033625     -0.12806640
 C     -0.04091818     25.29628995      1.03630354
 C      1.43661058     25.22102999      0.60870008
 C      1.92704507     26.45589613     -0.16987531
 C      3.06943607     26.15958336     -1.15918898
 C      4.24522320     27.15041295     -1.07327432
 C      5.05279367     27.05225720      0.23431713
 C      5.22781388     28.39661470      0.96484492
 C      6.42348013     28.43141756      1.93477841
 C      6.62443082     29.78932338      2.63285478
 C      7.51587998     30.77060193      1.84926637
 C      8.86792948     31.06507845      2.52517001
 C      9.08224711     32.54892198      2.87713070
 C     10.52591953     33.04096975      2.66429521
 C     10.62498981     34.40196422      1.95051715
 C     11.29151713     35.50459675      2.79404714
 C     12.42510773     36.25090956      2.06631810
 C     13.49083619     36.84244896      3.00754283
 C     13.14206629     38.24173261      3.54788053
 C     13.70078299     38.52727959      4.95425835
 C     13.77658785     40.02465257      5.30600796
 C     13.51858126     40.33268807      6.79266418
 C     14.78923703     40.32930736      7.66273458
 C     14.53003693     40.62795695      9.15109734
 C     15.77792331     41.09613768      9.92258057
 C     15.66025947     42.51903347     10.49974847
 C     15.36109178     42.55967280     12.00986342
 C     15.79469888     43.86664466     12.69936284
 C     17.13366968     43.76288343     13.45301450
 C     17.59331060     45.08354102     14.09814531
 C     18.32351205     46.03276062     13.12995731
 C     17.93449161     47.51393388     13.29240383
 C     18.85674300     48.49007965     12.53861884
 C     18.84660019     49.92315916     13.10233882
 C     19.90709135     50.17591523     14.19003035
 C     19.37614543     50.94046142     15.41688224
 C     20.09918895     50.59427603     16.73178290
 C     19.64514087     49.26612464     17.36538706
 C     20.07002145     49.09606574     18.83581437
 C     19.63359132     47.75913853     19.46331288
 C     19.84855333     47.68227442     20.98629785
 C     20.78152378     46.54035485     21.43035396
 C     21.09739973     46.53982307     22.93761044
 C     21.91805459     47.75584226     23.40603646
 C     23.05109589     47.40595526     24.38858239
 C     22.55950904     46.95386424     25.77622647
 C     22.67589329     48.03643789     26.86530359
 C     21.36039310     48.78614304     27.14637558
 C     20.90903684     49.71048579     26.00030926
 C     20.88728750     51.20471330     26.37234570
 C     22.28095273     51.85796511     26.42293511
 C     22.63562629     52.67521245     25.16678486
 C     23.22261989     51.83459042     24.01770127
 C     23.48551401     52.63381908     22.72784848
 C     24.77944223     52.23290584     21.99530608
 C     25.79822858     53.37869693     21.85095535
 C     25.90126914     53.94921467     20.42424860
 C     25.53795665     55.44202905     20.31884820
 C     26.50559945     56.26203367     19.44542973
 C     27.44480606     57.18302963     20.24621521
 C     28.47196422     57.93583144     19.38028476
 C     28.98335953     59.24453396     20.01065971
 C     28.09845512     60.46976512     19.71510463
 C     28.28892762     61.63353965     20.70553336
 C     27.36555237     61.56621129     21.93616127
 C     28.08261369     61.15506909     23.23554003
 C     27.19911129     61.24439281     24.49373111
 C     27.96530964     61.63720904     25.77053787
 C     27.09037130     61.68284990     27.03702902
 C     27.68977995     62.51947138     28.18261785
 C     28.71111937     61.75706803     29.04702917
 C     29.17354133     62.52857705     30.29704508
 C     28.62179595     61.96588510     31.62013041
 C     29.11209902     60.54348390     31.94873006
250
Step 1000000 E=       311.1491
 C      0.00000000      0.00000000      0.00000000
 C      1.54000000      0.00000000      0.00000000
 C      2.16637443     -1.38197268      0.26345128
 C      2.71793598     -1.55793822      1.69048176
 C      3.99654425     -0.74714758      1.97222533
 C      4.79608481     -1.24208536      3.19180374
 C      6.15709469     -0.54477058      3.37347427
 C      6.75775448     -0.70098902      4.78287259
 C      7.76646581      0.40005658      5.15943605
 C      9.22553799      0.06199626      4.80107365
 C      9.49731019     -0.01355257      3.28712773
 C      9.25793954      1.31210667      2.54085079
 C      9.31432073      1.18647113      1.00702001
 C     10.36291489      0.17943315      0.49915703
 C     10.03113227     -0.43074557     -0.87532550
 C      8.75625410     -1.29455893     -0.88591398
 C      8.70274712     -2.31819714     -2.03521890
 C      9.71361760     -3.47142163     -1.89445608
 C      9.35781841     -4.72072081     -2.72165526
 C      8.55637865     -5.78029431     -1.94281104
 C      8.83397136     -7.22808565     -2.38827994
 C      9.37986018     -8.13407663     -1.26900082
 C     10.91430494     -8.11458469     -1.13977486
 C     11.43628955     -8.64827117      0.20718869
 C     12.96311921     -8.53811679      0.37528748
 C     13.40090353     -7.80471287      1.65671777
 C     12.96760293     -8.50475822      2.95817353
 C     13.18687680     -7.65979889      4.22685896
 C     14.55386573     -6.95260333      4.27992191
 C     14.61788652     -5.78778424      5.28525659
 C     14.13536839     -6.15493405      6.70087563
 C     13.80676094     -4.93819916      7.58584646
 C     13.68750580     -3.61329043      6.80996305
 C     13.83330569     -2.35729325      7.68906114
 C     15.00032305     -1.43909165      7.28092353
 C     14.59810084     -0.30398229      6.32105686
 C     13.74822463      0.79980140      6.97754143
 C     13.50155289      2.02165395      6.07320223
 C     12.02636243      2.45714889      5.99732559
 C     11.81248154      3.97444486      6.15116933
 C     12.07846715      4.50354662      7.57275400
 C     12.04931866      3.41514566      8.66185167
 C     12.02265110      3.96771465     10.09905603
 C     11.51608809      2.96047909     11.14808913
 C     10.07385259      2.47723405     10.90719291
 C      9.07465955      3.61095981     10.61074867
 C      7.59877907      3.17401905     10.66034276
 C      7.30773376      1.86374203      9.90531511
 C      5.84092514      1.40287745      9.99292968
 C      4.84207733      2.36034432      9.31679339
 C      3.36503875      1.99844916      9.55966973
 C      2.36942927      3.06330833      9.06324580
 C      1.13316467      3.23394135      9.96553966
 C      0.13356467      4.29299976      9.46474517
 C     -1.20738687      4.29624008     10.22200237
 C     -2.16338667      5.42671752      9.79810952
 C     -1.53132670      6.83039322      9.84047370
 C     -2.03356012      7.77712867      8.73455617
 C     -2.01052104      7.16018859      7.32372162
 C     -3.27642529      7.44564212      6.49450347
 C     -3.92948250      6.18651352      5.89474400
 C     -5.43897907      6.33121295      5.62626271
 C     -6.30349630      6.34351106      6.90064833
 C     -7.81866080      6.39069757      6.62926305
 C     -8.47786167      5.00369342      6.51405138
 C     -9.06867591      4.47921659      7.83596763
 C     -9.66125478      3.06115672      7.73821033
 C     -9.16750155      2.09900781      8.83460314
 C     -7.65608958      2.19164541      9.11505304
 C     -6.86106973      0.94602933      8.68148182
 C     -5.34722880      1.04578617      8.94593258
 C     -4.56363869     -0.23117250      8.58961379
 C     -4.68377126     -1.35282420      9.63797710
 C     -3.78423121     -1.15551339     10.87227696
 C     -4.49177727     -1.42718449     12.21286391
 C     -3.95197481     -0.58962262     13.38704593
 C     -4.50072009      0.84849351     13.43501077
 C     -4.09877606      1.71295238     12.22556798
 C     -4.79065894      3.08805415     12.18092272
 C     -4.71794361      3.78154836     10.80783195
 C     -5.79596398      4.86011513     10.59296966
 C     -5.80208143      5.96255515     11.66823176
 C     -4.40501132      6.31506270     12.21186172
 C     -4.42709998      7.06499199     13.55674765
 C     -5.69455037      6.81217176     14.39415521
 C     -5.66714462      7.47021802     15.78621269
 C     -5.57710945      9.00717685     15.75083997
 C     -4.68262657      9.60771694     16.85122716
 C     -3.34605289      8.86775526     17.04520525
 C     -2.27861800      9.21592423     15.99118384
 C     -1.12076504      8.20347981     15.91415912
 C      0.10082669      8.70789701     15.12366754
 C      1.44956928      8.44108952     15.81743062
 C      2.54182528      7.89996102     14.87628411
 C      2.02240303      6.90840118     13.81864069
 C      1.74071113      5.49745908     14.36772362
 C      1.80607310      4.38649381     13.30325944
 C      1.58966043      2.96851156     13.86369845
 C      1.76191692      1.84939968     12.81989946
 C      1.68819628      0.42788930     13.40766940
 C      0.25327567     -0.07675192     13.64837688
 C     -0.27094476      0.18193266     15.07311377
 C     -1.05136299     -1.00006292     15.67762501
 C     -2.01884492     -0.59979801     16.80694637
 C     -1.34180102      0.12803854     17.98315447
 C     -2.30975128      0.95777491     18.84698885
 C     -3.39590940      1.69322926     18.04016330
 C     -3.96955164      2.93458364     18.74838212
 C     -4.86372767      2.60783428     19.95887131
 C     -5.46992651      3.84746046     20.64257440
 C     -5.45587997      5.11488935     19.76791636
 C     -6.84190783      5.75745792     19.57392563
 C     -7.22366719      6.76685960     20.67254660
 C     -8.47819966      7.59957624     20.34954306
 C     -9.05787400      8.35430877     21.56030995
 C    -10.57780570      8.18094913     21.73738068
 C    -11.01691253      7.95674500     23.19632472
 C    -10.01442959      8.48316561     24.24012034
 C    -10.51772787      9.70453814     25.03166312
 C     -9.69008297     10.01871966     26.29177974
 C     -8.24585139     10.46499115     25.99743830
 C     -7.23782945      9.30429685     25.90644094
 C     -7.16216315      8.43923188     27.17826530
 C     -7.35060331      6.93228224     26.92293590
 C     -7.62889292      6.11130454     28.19578722
 C     -7.65398064      4.58873640     27.96609856
 C     -7.23982511      3.76253379     29.19795262
 C     -7.57831103      2.26409042     29.08981045
 C     -8.88796908      1.86528909     29.79504324
 C     -9.60330341      0.66167182     29.15379269
 C    -10.55055550     -0.08635010     30.11023229
 C     -9.82714692     -0.88860733     31.20780387
 C     -8.76758568     -1.86913075     30.67161007
 C     -7.33204125     -1.31194343     30.69043794
 C     -6.24970569     -2.37781447     30.94355585
 C     -4.81825672     -1.90340442     30.63132364
 C     -4.30904099     -0.79099187     31.56665121
 C     -4.23120198     -1.20495486     33.04792625
 C     -2.90342043     -0.83255870     33.73343138
 C     -2.38525077     -1.89894892     34.71623966
 C     -2.76295463     -3.34151792     34.33161718
 C     -1.92506800     -4.41951364     35.04398731
 C     -2.59594647     -5.00568399     36.30014272
 C     -1.87536587     -6.23800720     36.87784775
 C     -2.58770042     -6.86990325     38.08817287
 C     -1.73255854     -7.89830100     38.85154070
 C     -2.37335481     -8.39812515     40.15965229
 C     -3.84179719     -7.97102075     40.34092224
 C     -4.70184796     -8.99414156     41.10586439
 C     -4.86706317    -10.34163773     40.37884443
 C     -5.46165320    -10.22091279     38.96339814
 C     -5.33497394    -11.50276766     38.11935997
 C     -6.17339586    -11.48763784     36.82768673
 C     -6.30419087    -12.86414800     36.14966574
 C     -6.77683453    -12.79878442     34.68544732
 C     -6.13107813    -11.66397480     33.86886554
 C     -4.78259696    -12.04215025     33.22841113
 C     -3.60060222    -11.17402490     33.69835454
 C     -2.90702125    -10.39419651     32.56591773
 C     -3.77896505    -10.20432902     31.31082237
 C     -2.99962089     -9.71971480     30.07414467
 C     -2.21218031    -10.83073778     29.35500262
 C     -1.15344809    -10.30848349     28.36609588
 C      0.10084889     -9.72420671     29.04208386
 C      1.14881959     -9.17956214     28.05379255
 C      1.79825925    -10.26099560     27.17042978
 C      2.85889506     -9.71876118     26.19440031
 C      3.33966628    -10.74936871     25.15598461
 C      4.49511333    -10.25151985     24.26790317
 C      5.04408907    -11.31562467     23.29944741
 C      4.16639230    -11.54182554     22.05442469
 C      4.13972318    -10.34829908     21.08160233
 C      5.51853949     -9.98190393     20.50175737
 C      5.94714434     -8.52836316     20.77583240
 C      4.77483502     -7.53212988     20.84518709
 C      5.06927751     -6.27591207     21.68591322
 C      6.15334921     -6.48115395     22.76028016
 C      6.42398269     -5.23465055     23.62317458
 C      7.62011240     -5.38396133     24.58160037
 C      7.79220725     -4.20472723     25.55699276
 C      7.09557293     -2.90881439     25.10211858
 C      6.90253815     -1.87375756     26.22594906
 C      6.39089511     -0.50608888     25.73676221
 C      6.38864269      0.58653868     26.82200870
 C      7.72409016      0.72243975     27.57680069
 C      8.15161455      2.17900305     27.83611950
 C      8.03821587      3.09413099     26.60271705
 C      8.53462826      2.44826802     25.29579863
 C      9.53249796      3.31685042     24.50749622
 C     10.30256147      2.55150086     23.41532305
 C     11.21222268      1.43321978     23.95713844
 C     12.68678907      1.84757603     24.11702230
 C     13.43858807      1.07561356     25.21723692
 C     14.97212834      1.16839616     25.11119150
 C     15.72305797      0.13135594     25.96690891
 C     16.66594349      0.74953724     27.01591738
 C     16.72849392     -0.03334575     28.34059910
 C     15.36400823     -0.19959949     29.03496103
 C     14.46984590      1.05237150     28.96682621
 C     14.75118373      2.08409044     30.07498011
 C     13.51387554      2.45657074     30.91279086
 C     13.36383309      3.96735779     31.17087953
 C     13.84828024      4.85267337     30.00763954
 C     13.58720732      6.35628416     30.21402637
 C     13.70961639      6.81812049     31.67803567
 C     13.03548132      8.17244216     31.96605428
 C     11.54077548      8.21890354     31.59822853
 C     11.20544799      9.20375799     30.46279153
 C     11.06850874     10.66702787     30.92288816
 C     11.10227509     11.69094248     29.77308004
 C      9.71000236     12.15634379     29.30770031
 C      9.12375669     13.31001548     30.14254020
 C      7.61318335     13.52759189     29.93655795
 C      7.12538580     13.22212027     28.50815302
 C      6.29967952     11.92742057     28.39169787
 C      5.38009382     11.87987389     27.15731484
 C      3.88088568     11.78498100     27.49638754
 C      3.01504681     11.22023685     26.35490294
 C      1.70253313     10.56824124     26.82798812
 C      0.49926836     10.84266069     25.90687583
 C     -0.11659222      9.57483655     25.28644236
 C     -0.82974164      8.66326353     26.30234222
 C     -2.06109272      9.30769990     26.96572466
 C     -2.68568868      8.45678234     28.08707170
 C     -1.70132652      8.08043610     29.21001187
 C     -2.11419771      8.59237042     30.60251345
 C     -3.46935995      8.04961342     31.09297257
 C     -3.46290212      7.58218330     32.56030599
 C     -2.35925624      6.55900117     32.88690069
 C     -2.86311689      5.10794212     32.99713719
 C     -4.34323084      4.92785567     32.61186901
 C     -4.92764948      3.55548180     32.99481134
 C     -6.13356739      3.63252648     33.94949772
 C     -5.82570951      4.31863533     35.29340180
 C     -4.79864911      3.56639930     36.15993967
 C     -4.74254710      4.04542372     37.62246768
 C     -5.91260269      3.54619332     38.49041867
 C     -6.76106987      4.67398590     39.10668757
 C     -8.25183230      4.32145239     39.26463535
 C     -8.51375661      3.09042094     40.15207955
 C     -8.37857862      1.74576720     39.41368044
 C     -7.61245118      0.67026334     40.20610721
 C     -7.34578681     -0.62188373     39.41184904
 C     -6.54558644     -1.68218305     40.19097979
 C     -7.38189182     -2.46902849     41.21717059
 C     -6.59146946     -3.55771512     41.96656630
 C     -5.26105110     -3.06531523     42.56584032
 C     -4.55450009     -4.10212988     43.45881347
 C     -5.41665627     -4.61289034     44.62817675
 C     -4.63437038     -4.82350525     45.93785997
250
Step 2000000 E=       295.6271
 C      0.00000000      0.00000000      0.00000000
 C      1.54000000      0.00000000      0.00000000
 C      2.16637443      1.38939828      0.22096941
 C      3.64152496      1.48721723     -0.21026413
 C      4.50458379      2.37408581      0.70635660
 C      4.05325432      3.84548668      0.76003343
 C      3.59949729      4.31095155      2.15611617
 C      4.75900800      4.66108191      3.10719116
 C      4.36634593      5.61854656      4.24766385
 C      5.48116012      6.60075663      4.65269806
 C      6.11134682      6.30143342      6.02560386
 C      7.09915338      7.37913260      6.50975538
 C      8.10031533      6.88089366      7.56854370
 C      9.12960810      5.86964514      7.03046115
 C     10.56264071      6.10061875      7.54492080
 C     11.57797642      5.04699651      7.06474003
 C     11.76679134      5.00976818      5.53681235
 C     11.93881845      3.59174504      4.96129774
 C     12.85680829      3.52393708      3.72667361
 C     12.16810426      2.97479370      2.46345221
 C     11.60362242      1.55127589      2.62641626
 C     10.93550398      0.99315651      1.35609326
 C     11.28094663     -0.47842275      1.06160412
 C     11.26145732     -0.83890120     -0.43548487
 C     12.25023025     -0.02324408     -1.28908406
 C     13.70327275     -0.52854985     -1.21884475
 C     13.90851583     -1.93102925     -1.82094676
 C     15.38503123     -2.30561351     -2.04719637
 C     15.65520663     -3.82169744     -2.03746070
 C     16.17940627     -4.37313535     -3.37638973
 C     17.30251983     -5.41623380     -3.22752215
 C     18.07405024     -5.32055955     -1.89816619
 C     18.69653839     -6.65185943     -1.43800411
 C     17.66777718     -7.76867806     -1.18116466
 C     18.16684625     -8.87379054     -0.23181937
 C     19.18306929     -9.83767210     -0.87199361
 C     18.55167637    -10.87544886     -1.81854650
 C     17.79635416    -12.00558250     -1.09474659
 C     16.98142657    -12.91526180     -2.03281726
 C     16.14310579    -13.97960948     -1.30070913
 C     15.40162737    -14.94836540     -2.24056109
 C     14.09361116    -15.51155665     -1.65446449
 C     13.26931703    -16.34728341     -2.65130949
 C     11.88820681    -16.77336603     -2.11971925
 C     10.73231221    -16.52021979     -3.10532803
 C      9.33874197    -16.83527379     -2.53060815
 C      8.40377833    -17.56004142     -3.51658730
 C      6.90669428    -17.39986097     -3.19304199
 C      5.97076851    -18.10047331     -4.19543179
 C      5.27465691    -17.14094087     -5.17845068
 C      4.51133541    -15.99049584     -4.49623627
 C      3.06728248    -15.81119549     -5.00038161
 C      2.14927218    -15.06105679     -4.01745282
 C      2.46304962    -13.55880113     -3.88950110
 C      1.29295582    -12.71868297     -3.34481589
 C      1.66275598    -11.25614344     -3.03525821
 C      2.70444401    -11.09769836     -1.91214593
 C      3.25719883     -9.66759404     -1.76770307
 C      2.24109161     -8.56489742     -2.11868209
 C      2.88078431     -7.19744644     -2.42277266
 C      4.00439748     -6.80071888     -1.44722119
 C      4.96492473     -5.73123633     -1.99966529
 C      6.21078170     -5.49660414     -1.12537234
 C      6.47700668     -4.01532880     -0.79895601
 C      7.85978772     -3.75011571     -0.17511419
 C      8.37681946     -4.89724750      0.71278605
 C      9.91106553     -5.02806711      0.73677003
 C     10.42323862     -6.25147615      1.51942515
 C     11.93372556     -6.21691250      1.81747641
 C     12.59997578     -7.60517495      1.83840496
 C     14.08674059     -7.58044926      2.23905326
 C     14.43390253     -6.51209750      3.29247773
 C     15.91025514     -6.52088761      3.73054815
 C     16.33886811     -7.80638997      4.46224111
 C     16.53651820     -7.62755021      5.97899777
 C     15.24538266     -7.27760785      6.74195869
 C     15.47696783     -6.85665782      8.20509552
 C     14.96361112     -7.87609825      9.23892631
 C     15.11164967     -7.41451400     10.70064604
 C     14.81606334     -8.51395837     11.73768548
 C     14.13381732     -7.99944568     13.01886347
 C     12.97163783     -7.02259359     12.76060232
 C     11.65375481     -7.42054553     13.45083316
 C     11.58193859     -7.02720402     14.93802006
 C     11.96951816     -5.56334227     15.21818225
 C     12.05414616     -5.21336000     16.71549668