500
Step 1 E=       -28.1510
 C      0.00000000      0.00000000      0.00000000
 C      1.54000000      0.00000000      0.00000000
 C      2.16637443      1.40686000      0.00000000
 C      3.70637443      1.40686000      0.00000000
 C      4.33274886      2.81372001      0.00000000
 C      5.87274886      2.81372001      0.00000000
 C      6.49912329      4.22058001      0.00000000
 C      8.03912329      4.22058001      0.00000000
 C      8.66549772      5.62744002      0.00000000
 C     10.20549772      5.62744002      0.00000000
 C     10.83187215      7.03430002      0.00000000
 C     12.37187215      7.03430002      0.00000000
 C     12.99824658      8.44116003      0.00000000
 C     14.53824658      8.44116003      0.00000000
 C     15.16462101      9.84802003      0.00000000
 C     16.70462101      9.84802003      0.00000000
 C     17.33099544     11.25488004      0.00000000
 C     18.87099544     11.25488004      0.00000000
 C     19.49736987     12.66174004      0.00000000
 C     21.03736987     12.66174004      0.00000000
 C     21.66374430     14.06860005      0.00000000
 C     23.20374430     14.06860005      0.00000000
 C     23.83011873     15.47546005      0.00000000
 C     25.37011873     15.47546005      0.00000000
 C     25.99649316     16.88232006      0.00000000
 C     27.53649316     16.88232006      0.00000000
 C     28.16286759     18.28918006      0.00000000
 C     29.70286759     18.28918006      0.00000000
 C     30.32924202     19.69604007      0.00000000
 C     31.86924202     19.69604007      0.00000000
 C     32.49561646     21.10290007      0.00000000
 C     34.03561646     21.10290007      0.00000000
 C     34.66199089     22.50976008      0.00000000
 C     36.20199089     22.50976008      0.00000000
 C     36.82836532     23.91662008      0.00000000
 C     38.36836532     23.91662008      0.00000000
 C     38.99473975     25.32348009      0.00000000
 C     40.53473975     25.32348009      0.00000000
 C     41.16111418     26.73034009      0.00000000
 C     42.70111418     26.73034009      0.00000000
 C     43.32748861     28.13720010      0.00000000
 C     44.86748861     28.13720010      0.00000000
 C     45.49386304     29.54406010      0.00000000
 C     47.03386304     29.54406010      0.00000000
 C     47.66023747     30.95092010      0.00000000
 C     49.20023747     30.95092010      0.00000000
 C     49.82661190     32.35778011      0.00000000
 C     51.36661190     32.35778011      0.00000000
 C     51.99298633     33.76464011      0.00000000
 C     53.53298633     33.76464011      0.00000000
 C     54.15936076     35.17150012      0.00000000
 C     55.69936076     35.17150012      0.00000000
 C     56.32573519     36.57836012      0.00000000
 C     57.86573519     36.57836012      0.00000000
 C     58.49210962     37.98522013      0.00000000
 C     60.03210962     37.98522013      0.00000000
 C     60.65848405     39.39208013      0.00000000
 C     62.19848405     39.39208013      0.00000000
 C     62.82485848     40.79894014      0.00000000
 C     64.36485848     40.79894014      0.00000000
 C     64.99123291     42.20580014      0.00000000
 C     66.53123291     42.20580014      0.00000000
 C     67.15760734     43.61266015      0.00000000
 C     68.69760734     43.61266015      0.00000000
 C     69.32398177     45.01952015      0.00000000
 C     70.86398177     45.01952015      0.00000000
 C     71.49035620     46.42638016      0.00000000
 C     73.03035620     46.42638016      0.00000000
 C     73.65673063     47.83324016      0.00000000
 C     75.19673063     47.83324016      0.00000000
 C     75.82310506     49.24010017      0.00000000
 C     77.36310506     49.24010017      0.00000000
 C     77.98947949     50.64696017      0.00000000
 C     79.52947949     50.64696017      0.00000000
 C     80.15585392     52.05382018      0.00000000
 C     81.69585392     52.05382018      0.00000000
 C     82.32222835     53.46068018      0.00000000
 C     83.86222835     53.46068018      0.00000000
 C     84.48860278     54.86754019      0.00000000
 C     86.02860278     54.86754019      0.00000000
 C     86.65497721     56.27440019      0.00000000
 C     88.19497721     56.27440019      0.00000000
 C     88.82135164     57.68126020      0.00000000
 C     90.36135164     57.68126020      0.00000000
 C     90.98772607     59.08812020      0.00000000
 C     92.52772607     59.08812020      0.00000000
 C     93.15410050     60.49498021      0.00000000
 C     94.69410050     60.49498021      0.00000000
 C     95.32047493     61.90184021      0.00000000
 C     96.86047493     61.90184021      0.00000000
 C     97.48684937     63.30870021      0.00000000
 C     99.02684937     63.30870021      0.00000000
 C     99.65322380     64.71556022      0.00000000
 C    101.19322380     64.71556022      0.00000000
 C    101.81959823     66.12242022      0.00000000
 C    103.35959823     66.12242022      0.00000000
 C    103.98597266     67.52928023      0.00000000
 C    105.52597266     67.52928023      0.00000000
 C    106.15234709     68.93614023      0.00000000
 C    107.69234709     68.93614023      0.00000000
 C    108.31872152     70.34300024      0.00000000
 C    109.85872152     70.34300024      0.00000000
 C    110.48509595     71.74986024      0.00000000
 C    112.02509595     71.74986024      0.00000000
 C    112.65147038     73.15672025      0.00000000
 C    114.19147038     73.15672025      0.00000000
 C    114.81784481     74.56358025      0.00000000
 C    116.35784481     74.56358025      0.00000000
 C    116.98421924     75.97044026      0.00000000
 C    118.52421924     75.97044026      0.00000000
 C    119.15059367     77.37730026      0.00000000
 C    120.69059367     77.37730026      0.00000000
 C    121.31696810     78.78416027      0.00000000
 C    122.85696810     78.78416027      0.00000000
 C    123.48334253     80.19102027      0.00000000
 C    125.02334253     80.19102027      0.00000000
 C    125.64971696     81.59788028      0.00000000
 C    127.18971696     81.59788028      0.00000000
 C    127.81609139     83.00474028      0.00000000
 C    129.35609139     83.00474028      0.00000000
 C    129.98246582     84.41160029      0.00000000
 C    131.52246582     84.41160029      0.00000000
 C    132.14884025     85.81846029      0.00000000
 C    133.68884025     85.81846029      0.00000000
 C    134.31521468     87.22532030      0.00000000
 C    135.85521468     87.22532030      0.00000000
 C    136.48158911     88.63218030      0.00000000
 C    138.02158911     88.63218030      0.00000000
 C    138.64796354     90.03904031      0.00000000
 C    140.18796354     90.03904031      0.00000000
 C    140.81433797     91.44590031      0.00000000
 C    142.35433797     91.44590031      0.00000000
 C    142.98071240     92.85276031      0.00000000
 C    144.52071240     92.85276031      0.00000000
 C    145.14708683     94.25962032      0.00000000
 C    146.68708683     94.25962032      0.00000000
 C    147.31346126     95.66648032      0.00000000
 C    148.85346126     95.66648032      0.00000000
 C    149.47983569     97.07334033      0.00000000
 C    151.01983569     97.07334033      0.00000000
 C    151.64621012     98.48020033      0.00000000
 C    153.18621012     98.48020033      0.00000000
 C    153.81258455     99.88706034      0.00000000
 C    155.35258455     99.88706034      0.00000000
 C    155.97895898    101.29392034      0.00000000
 C    157.51895898    101.29392034      0.00000000
 C    158.14533341    102.70078035      0.00000000
 C    159.68533341    102.70078035      0.00000000
 C    160.31170784    104.10764035      0.00000000
 C    161.85170784    104.10764035      0.00000000
 C    162.47808228    105.51450036      0.00000000
 C    164.01808228    105.51450036      0.00000000
 C    164.64445671    106.92136036      0.00000000
 C    166.18445671    106.92136036      0.00000000
 C    166.81083114    108.32822037      0.00000000
 C    168.35083114    108.32822037      0.00000000
 C    168.97720557    109.73508037      0.00000000
 C    170.51720557    109.73508037      0.00000000
 C    171.14358000    111.14194038      0.00000000
 C    172.68358000    111.14194038      0.00000000
 C    173.30995443    112.54880038      0.00000000
 C    174.84995443    112.54880038      0.00000000
 C    175.47632886    113.95566039      0.00000000
 C    177.01632886    113.95566039      0.00000000
 C    177.64270329    115.36252039      0.00000000
 C    179.18270329    115.36252039      0.00000000
 C    179.80907772    116.76254397      0.13852451
 C    181.34907772    116.76254397      0.13852451
 C    181.97545215    118.16256756      0.27704903
 C    183.51545215    118.16256756      0.27704903
 C    184.14182658    119.56259114      0.41557354
 C    185.68182658    119.56259114      0.41557354
 C    186.30820101    120.96261472      0.55409805
 C    187.84820101    120.96261472      0.55409805
 C    188.47457544    122.36263830      0.69262257
 C    190.01457544    122.36263830      0.69262257
 C    190.64094987    123.76266189      0.83114708
 C    192.18094987    123.76266189      0.83114708
 C    192.80732430    125.16268547      0.96967159
 C    194.34732430    125.16268547      0.96967159
 C    194.97369873    126.56270905      1.10819611
 C    196.51369873    126.56270905      1.10819611
 C    197.14007316    127.96273264      1.24672062
 C    198.68007316    127.96273264      1.24672062
 C    199.30644759    129.36275622      1.38524513
 C    200.84644759    129.36275622      1.38524513
 C    201.47282202    130.76277980      1.52376965
 C    203.01282202    130.76277980      1.52376965
 C    203.63919645    132.16280338      1.66229416
 C    205.17919645    132.16280338      1.66229416
 C    205.80557088    133.56282697      1.80081867
 C    207.34557088    133.56282697      1.80081867
 C    207.97194531    134.96285055      1.93934319
 C    209.51194531    134.96285055      1.93934319
 C    210.13831974    136.36287413      2.07786770
 C    211.67831974    136.36287413      2.07786770
 C    212.30469417    137.76289771      2.21639222
 C    213.84469417    137.76289771      2.21639222
 C    214.47106860    139.16292130      2.35491673
 C    216.01106860    139.16292130      2.35491673
 C    216.63744303    140.56294488      2.49344124
 C    218.17744303    140.56294488      2.49344124
 C    218.80381746    141.96296846      2.63196576
 C    220.34381746    141.96296846      2.63196576
 C    220.97019189    143.36299205      2.77049027
 C    222.51019189    143.36299205      2.77049027
 C    223.13656632    144.76301563      2.90901478
 C    224.67656632    144.76301563      2.90901478
 C    225.30294076    146.16303921      3.04753930
 C    226.84294076    146.16303921      3.04753930
 C    227.46931519    147.56306279      3.18606381
 C    229.00931519    147.56306279      3.18606381
 C    229.63568962    148.96308638      3.32458832
 C    231.17568962    148.96308638      3.32458832
 C    231.80206405    150.36310996      3.46311284
 C    233.34206405    150.36310996      3.46311284
 C    233.96843848    151.76313354      3.60163735
 C    235.50843848    151.76313354      3.60163735
 C    236.13481291    153.16315712      3.74016186
 C    237.67481291    153.16315712      3.74016186
 C    238.30118734    154.56318071      3.87868638
 C    239.84118734    154.56318071      3.87868638
 C    240.46756177    155.96320429      4.01721089
 C    242.00756177    155.96320429      4.01721089
 C    242.63393620    157.36322787      4.15573540
 C    244.17393620    157.36322787      4.15573540
 C    244.80031063    158.76325146      4.29425992
 C    246.34031063    158.76325146      4.29425992
 C    246.96668506    160.16327504      4.43278443
 C    248.50668506    160.16327504      4.43278443
 C    249.13305949    161.56329862      4.57130894
 C    250.67305949    161.56329862      4.57130894
 C    251.29943392    162.96332220      4.70983346
 C    252.83943392    162.96332220      4.70983346
 C    253.46580835    164.36334579      4.84835797
 C    255.00580835    164.36334579      4.84835797
 C    255.63218278    165.76336937      4.98688248
 C    257.17218278    165.76336937      4.98688248
 C    257.79855721    167.16339295      5.12540700
 C    259.33855721    167.16339295      5.12540700
 C    259.96493164    168.56341653      5.26393151
 C    261.50493164    168.56341653      5.26393151
 C    262.13130607    169.96344012      5.40245602
 C    263.67130607    169.96344012      5.40245602
 C    264.29768050    171.36346370      5.54098054
 C    265.83768050    171.36346370      5.54098054
 C    266.46405493    172.76348728      5.67950505
 C    268.00405493    172.76348728      5.67950505
 C    268.63042936    174.16351087      5.81802957
 C    270.17042936    174.16351087      5.81802957
 C    270.79680379    175.56353445      5.95655408
 C    272.33680379    175.56353445      5.95655408
 C    272.96317822    176.96355803      6.09507859
 C    274.50317822    176.96355803      6.09507859
 C    275.12955265    178.36358161      6.23360311
 C    276.66955265    178.36358161      6.23360311
 C    277.29592708    179.76360520      6.37212762
 C    278.83592708    179.76360520      6.37212762
 C    279.46230151    181.16362878      6.51065213
 C    281.00230151    181.16362878      6.51065213
 C    281.62867594    182.56365236      6.64917665
 C    283.16867594    182.56365236      6.64917665
 C    283.79505037    183.96367594      6.78770116
 C    285.33505037    183.96367594      6.78770116
 C    285.96142480    185.36369953      6.92622567
 C    287.50142480    185.36369953      6.92622567
 C    288.12779923    186.76372311      7.06475019
 C    289.66779923    186.76372311      7.06475019
 C    290.29417367    188.16374669      7.20327470
 C    291.83417367    188.16374669      7.20327470
 C    292.46054810    189.56377028      7.34179921
 C    294.00054810    189.56377028      7.34179921
 C    294.62692253    190.96379386      7.48032373
 C    296.16692253    190.96379386      7.48032373
 C    296.79329696    192.36381744      7.61884824
 C    298.33329696    192.36381744      7.61884824
 C    298.95967139    193.76384102      7.75737275
 C    300.49967139    193.76384102      7.75737275
 C    301.12604582    195.16386461      7.89589727
 C    302.66604582    195.16386461      7.89589727
 C    303.29242025    196.56388819      8.03442178
 C    304.83242025    196.56388819      8.03442178
 C    305.45879468    197.96391177      8.17294629
 C    306.99879468    197.96391177      8.17294629
 C    307.62516911    199.36393535      8.31147081
 C    309.16516911    199.36393535      8.31147081
 C    309.79154354    200.76395894      8.44999532
 C    311.33154354    200.76395894      8.44999532
 C    311.95791797    202.16398252      8.58851983
 C    313.49791797    202.16398252      8.58851983
 C    314.12429240    203.56400610      8.72704435
 C    315.66429240    203.56400610      8.72704435
 C    316.29066683    204.96402969      8.86556886
 C    317.83066683    204.96402969      8.86556886
 C    318.45704126    206.36405327      9.00409337
 C    319.99704126    206.36405327      9.00409337
 C    320.62341569    207.76407685      9.14261789
 C    322.16341569    207.76407685      9.14261789
 C    322.78979012    209.16410043      9.28114240
 C    324.32979012    209.16410043      9.28114240
 C    324.95616455    210.56412402      9.41966692
 C    326.49616455    210.56412402      9.41966692
 C    327.12253898    211.96414760      9.55819143
 C    328.66253898    211.96414760      9.55819143
 C    329.28891341    213.36417118      9.69671594
 C    330.82891341    213.36417118      9.69671594
 C    331.45528784    214.76419476      9.83524046
 C    332.99528784    214.76419476      9.83524046
 C    333.62166227    216.16421835      9.97376497
 C    335.16166227    216.16421835      9.97376497
 C    335.78803670    217.56424193     10.11228948
 C    337.32803670    217.56424193     10.11228948
 C    337.95441113    218.96426551     10.25081400
 C    339.49441113    218.96426551     10.25081400
 C    340.12078556    220.36428910     10.38933851
 C    341.66078556    220.36428910     10.38933851
 C    342.28715999    221.76431268     10.52786302
 C    343.82715999    221.76431268     10.52786302
 C    344.45353442    223.16433626     10.66638754
 C    345.99353442    223.16433626     10.66638754
 C    346.61990885    224.56435984     10.80491205
 C    348.15990885    224.56435984     10.80491205
 C    348.78628328    225.96438343     10.94343656
 C    350.32628328    225.96438343     10.94343656
 C    350.95265771    227.36440701     11.08196108
 C    352.49265771    227.36440701     11.08196108
 C    353.11903214    228.76443059     11.22048559
 C    354.65903214    228.76443059     11.22048559
 C    355.28540658    230.16445417     11.35901010
 C    356.82540658    230.16445417     11.35901010
 C    357.45178101    231.56447776     11.49753462
 C    358.99178101    231.56447776     11.49753462
 C    359.61815544    232.96450134     11.63605913
 C    361.15815544    232.96450134     11.63605913
 C    361.78452987    234.36452492     11.77458364
 C    363.32452987    234.36452492     11.77458364
 C    363.95090430    235.76454851     11.91310816
 C    365.49090430    235.76454851     11.91310816
 C    366.11727873    237.16457209     12.05163267
 C    367.65727873    237.16457209     12.05163267
 C    368.28365316    238.56459567     12.19015718
 C    369.82365316    238.56459567     12.19015718
 C    370.45002759    239.96461925     12.32868170
 C    371.99002759    239.96461925     12.32868170
 C    372.61640202    241.36464284     12.46720621
 C    374.15640202    241.36464284     12.46720621
 C    374.78277645    242.76466642     12.60573072
 C    376.32277645    242.76466642     12.60573072
 C    376.94915088    244.16469000     12.74425524
 C    378.48915088    244.16469000     12.74425524
 C    379.11552531    245.56471358     12.88277975
 C    380.65552531    245.56471358     12.88277975
 C    381.28189974    246.96473717     13.02130427
 C    382.82189974    246.96473717     13.02130427
 C    383.44827417    248.36476075     13.15982878
 C    384.98827417    248.36476075     13.15982878
 C    385.61464860    249.76478433     13.29835329
 C    387.15464860    249.76478433     13.29835329
 C    387.78102303    251.16480792     13.43687781
 C    389.32102303    251.16480792     13.43687781
 C    389.94739746    252.56483150     13.57540232
 C    391.48739746    252.56483150     13.57540232
 C    392.11377189    253.96485508     13.71392683
 C    393.65377189    253.96485508     13.71392683
 C    394.28014632    255.36487866     13.85245135
 C    395.82014632    255.36487866     13.85245135
 C    396.44652075    256.76490225     13.99097586
 C    397.98652075    256.76490225     13.99097586
 C    398.61289518    258.16492583     14.12950037
 C    400.15289518    258.16492583     14.12950037
 C    400.77926961    259.56494941     14.26802489
 C    402.31926961    259.56494941     14.26802489
 C    402.94564404    260.96497299     14.40654940
 C    404.48564404    260.96497299     14.40654940
 C    405.11201847    262.36499658     14.54507391
 C    406.65201847    262.36499658     14.54507391
 C    407.27839290    263.76502016     14.68359843
 C    408.81839290    263.76502016     14.68359843
 C    409.44476733    265.16504374     14.82212294
 C    410.98476733    265.16504374     14.82212294
 C    411.61114176    266.56506733     14.96064745
 C    413.15114176    266.56506733     14.96064745
 C    413.77751619    267.96509091     15.09917197
 C    415.31751619    267.96509091     15.09917197
 C    415.94389062    269.36511449     15.23769648
 C    417.48389062    269.36511449     15.23769648
 C    418.11026505    270.76513807     15.37622099
 C    419.65026505    270.76513807     15.37622099
 C    420.27663949    272.16516166     15.51474551
 C    421.81663949    272.16516166     15.51474551
 C    422.44301392    273.56518524     15.65327002
 C    423.98301392    273.56518524     15.65327002
 C    424.60938835    274.96520882     15.79179453
 C    426.14938835    274.96520882     15.79179453
 C    426.77576278    276.36523240     15.93031905
 C    428.31576278    276.36523240     15.93031905
 C    428.94213721    277.76525599     16.06884356
 C    430.48213721    277.76525599     16.06884356
 C    431.10851164    279.16527957     16.20736807
 C    432.64851164    279.16527957     16.20736807
 C    433.27488607    280.56530315     16.34589259
 C    434.81488607    280.56530315     16.34589259
 C    435.44126050    281.96532674     16.48441710
 C    436.98126050    281.96532674     16.48441710
 C    437.60763493    283.36535032     16.62294162
 C    439.14763493    283.36535032     16.62294162
 C    439.77400936    284.76537390     16.76146613
 C    441.31400936    284.76537390     16.76146613
 C    441.94038379    286.16539748     16.89999064
 C    443.48038379    286.16539748     16.89999064
 C    444.10675822    287.56542107     17.03851516
 C    445.64675822    287.56542107     17.03851516
 C    446.27313265    288.96544465     17.17703967
 C    447.81313265    288.96544465     17.17703967
 C    448.43950708    290.36546823     17.31556418
 C    449.97950708    290.36546823     17.31556418
 C    450.60588151    291.76549181     17.45408870
 C    452.14588151    291.76549181     17.45408870
 C    452.77225594    293.16551540     17.59261321
 C    454.31225594    293.16551540     17.59261321
 C    454.93863037    294.56553898     17.73113772
 C    456.47863037    294.56553898     17.73113772
 C    457.10500480    295.96556256     17.86966224
 C    458.64500480    295.96556256     17.86966224
 C    459.27137923    297.36558615     18.00818675
 C    460.81137923    297.36558615     18.00818675
 C    461.43775366    298.76560973     18.14671126
 C    462.97775366    298.76560973     18.14671126
 C    463.60412809    300.16563331     18.28523578
 C    465.14412809    300.16563331     18.28523578
 C    465.77050252    301.56565689     18.42376029
 C    467.31050252    301.56565689     18.42376029
 C    467.93687695    302.96568048     18.56228480
 C    469.47687695    302.96568048     18.56228480
 C    470.10325138    304.36570406     18.70080932
 C    471.64325138    304.36570406     18.70080932
 C    472.26962581    305.76572764     18.83933383
 C    473.80962581    305.76572764     18.83933383
 C    474.43600024    307.16575122     18.97785834
 C    475.97600024    307.16575122     18.97785834
 C    476.60237467    308.56577481     19.11638286
 C    478.14237467    308.56577481     19.11638286
 C    478.76874910    309.96579839     19.25490737
 C    480.30874910    309.96579839     19.25490737
 C    480.93512353    311.36582197     19.39343188
 C    482.47512353    311.36582197     19.39343188
 C    483.10149797    312.76584556     19.53195640
 C    484.64149797    312.76584556     19.53195640
 C    485.26787240    314.16586914     19.67048091
 C    486.80787240    314.16586914     19.67048091
 C    487.43424683    315.56589272     19.80900542
 C    488.97424683    315.56589272     19.80900542
 C    489.60062126    316.96591630     19.94752994
 C    491.14062126    316.96591630     19.94752994
 C    491.76699569    318.36593989     20.08605445
 C    493.30699569    318.36593989     20.08605445
 C    493.93337012    319.76596347     20.22457897
 C    495.47337012    319.76596347     20.22457897
 C    496.09974455    321.16598705     20.36310348
 C    497.63974455    321.16598705     20.36310348
 C    498.26611898    322.56601063     20.50162799
 C    499.80611898    322.56601063     20.50162799
 C    500.43249341    323.96603422     20.64015251
 C    501.97249341    323.96603422     20.64015251
 C    502.59886784    325.36605780     20.77867702
 C    504.13886784    325.36605780     20.77867702
 C    504.76524227    326.76608138     20.91720153
 C    506.30524227    326.76608138     20.91720153
 C    506.93161670    328.16610497     21.05572605
 C    508.47161670    328.16610497     21.05572605
 C    509.09799113    329.56612855     21.19425056
 C    510.63799113    329.56612855     21.19425056
 C    511.26436556    330.96615213     21.33277507
 C    512.80436556    330.96615213     21.33277507
 C    513.43073999    332.36617571     21.47129959
 C    514.97073999    332.36617571     21.47129959
 C    515.59711442    333.76619930     21.60982410
 C    517.13711442    333.76619930     21.60982410
 C    517.76348885    335.16622288     21.74834861
 C    519.30348885    335.16622288     21.74834861
 C    519.92986328    336.56624646     21.88687313
 C    521.46986328    336.56624646     21.88687313
 C    522.09623771    337.96627004     22.02539764
 C    523.63623771    337.96627004     22.02539764
 C    524.26261214    339.36629363     22.16392215
 C    525.80261214    339.36629363     22.16392215
 C    526.42898657    340.76631721     22.30244667
 C    527.96898657    340.76631721     22.30244667
 C    528.59536100    342.16634079     22.44097118
 C    530.13536100    342.16634079     22.44097118
 C    530.76173543    343.56636438     22.57949569
 C    532.30173543    343.56636438     22.57949569
 C    532.92810986    344.96638796     22.71802021
 C    534.46810986    344.96638796     22.71802021
 C    535.09448429    346.36641154     22.85654472
 C    536.63448429    346.36641154     22.85654472
 C    537.26085872    347.76643512     22.99506923
 C    538.80085872    347.76643512     22.99506923
 C    539.42723315    349.16645871     23.13359375
 C    540.96723315    349.16645871     23.13359375
500
Step 10000 E=       118.7245
 C      0.00000000      0.00000000      0.00000000
 C      1.54000000      0.00000000      0.00000000
 C      2.16637443      1.26136593     -0.62306585
 C      3.69230203      1.17503367     -0.81198836
 C      4.35639677      2.51816797     -1.16775294
 C      5.84470720      2.40042807     -1.54546897
 C      6.45412027      3.70012154     -2.10315400
 C      7.97516300      3.63019433     -2.33367343
 C      8.47792759      4.53376297     -3.47489710
 C      9.86897679      4.14893478     -4.01200918
 C     10.41425490      5.11022192     -5.08448241
 C     11.84175214      4.77718231     -5.55664368
 C     12.49634484      5.88536871     -6.40223892
 C     13.91179796      5.53941668     -6.90064602
 C     14.58027446      6.66153525     -7.71648245
 C     16.02073684      6.34223116     -8.15774545
 C     16.68395875      7.45816284     -8.98625808
 C     18.21519810      7.33343021     -9.09278419
 C     18.84515315      8.24602432    -10.16139479
 C     20.37285087      8.09933484    -10.28875990
 C     21.05405696      9.26333090    -11.03217864
 C     22.55820877      9.05043929    -11.28477415
 C     23.29724234     10.31267350    -11.76663947
 C     24.63136965     10.02362563    -12.47948984
 C     25.52597254     11.26388150    -12.66128928
 C     26.73826221     11.03220174    -13.58230950
 C     27.70084413     12.23149694    -13.66432826
 C     28.80201368     12.07910744    -14.73006887
 C     29.83024919     13.22553139    -14.73669146
 C     31.03886889     12.97760170    -15.65830378
 C     32.18513191     13.98937414    -15.47391929
 C     33.34539872     13.80988612    -16.47049592
 C     34.52087950     14.77875712    -16.24436783
 C     35.63902970     14.66345110    -17.29700482
 C     36.76457936     15.70140114    -17.13148235
 C     37.96300095     15.48137266    -18.07327488
 C     39.13932254     16.44391579    -17.82552853
 C     40.40166957     16.11390974    -18.64356029
 C     41.59493191     17.04418376    -18.35665396
 C     42.82674989     16.77360509    -19.24040260
 C     43.98600125     17.76290047    -19.01897331
 C     45.20535894     17.51202572    -19.92552099
 C     46.50326392     18.17430775    -19.42709828
 C     47.69089248     18.03353017    -20.39731479
 C     49.05069030     18.41309654    -19.78210811
 C     50.19523238     18.51582269    -20.80732553
 C     51.51047509     19.06572414    -20.22479225
 C     52.65232422     19.17711186    -21.25210590
 C     54.00814706     19.57663280    -20.64077339
 C     55.15981850     19.64375671    -21.66094361
 C     56.55698369     19.75099107    -21.02217117
 C     57.71697397     19.58627517    -22.02161664
 C     59.10953030     19.55235828    -21.36493064
 C     60.25560280     19.23326635    -22.34283563
 C     61.60531479     18.95344196    -21.65612180
 C     62.78571469     18.80138565    -22.63343187
 C     64.09804774     18.35084558    -21.96530343
 C     65.22720089     18.02363912    -22.96006426
 C     66.44870565     17.33978676    -22.31829167
 C     67.54026853     16.93349785    -23.32577357
 C     68.67017389     16.08309388    -22.71607941
 C     69.72761939     15.62227069    -23.73639849
 C     70.69239643     14.54970521    -23.19750279
 C     71.87162830     14.23861490    -24.13784050
 C     72.86078431     13.19884731    -23.57922279
 C     74.15897023     13.06673399    -24.39706103
 C     75.17141621     12.06698949    -23.80793958
 C     76.58138507     12.17014367    -24.41863345
 C     77.54379572     11.05711757    -23.96416823
 C     79.01360768     11.30274955    -24.35264954
 C     79.98593300     10.22489820    -23.83843174
 C     81.30234485     10.13845914    -24.63290523
 C     82.04242406      8.79722737    -24.47485435
 C     83.42736176      8.76296332    -25.14744157
 C     84.16747163      7.42175576    -24.98932878
 C     85.59239403      7.41998579    -25.57344608
 C     86.23758696      6.02357669    -25.64671074
 C     87.49002674      5.95835726    -26.54043386
 C     88.63907197      5.12120683    -25.94842523
 C     90.00479263      5.37273198    -26.61411450
 C     91.16732863      4.59229511    -25.97299959
 C     92.49927359      4.71316919    -26.73648638
 C     93.56790002      3.69516893    -26.29681260
 C     94.93731881      3.89312448    -26.97290859
 C     95.91831166      2.72630542    -26.75430782
 C     97.28104194      2.91567982    -27.44619185
 C     98.19497420      1.67801192    -27.37906511